ITEM: TIMESTEP
3588
ITEM: NUMBER OF ATOMS
2100
ITEM: BOX BOUNDS pp pp pp
6.2551854977307586e-02 3.1537448145022676e+01
6.2551854977307586e-02 3.1537448145022676e+01
6.2551854977307586e-02 3.1537448145022676e+01
ITEM: ATOMS id type x y z 
2 1 1.63829 1.62921 1.64436 
23 1 3.18747 3.21 0.129836 
223 1 3.21948 3.20423 3.22771 
4 1 4.71366 1.60157 1.63376 
6 1 7.97272 1.6589 1.56358 
205 1 6.28707 0.0480705 3.18782 
225 1 6.36275 3.22403 3.31236 
2073 2 7.9405 0.85504 3.21954 
2074 2 6.32498 2.50835 1.62504 
8 1 11.0752 1.62641 1.61625 
227 1 9.49486 3.19653 3.21147 
9 1 12.7296 0.0530337 0.0876608 
209 1 12.6707 0.0594153 3.19686 
29 1 12.6308 3.19675 0.0744534 
229 1 12.6496 3.20717 3.20727 
10 1 14.2338 1.64124 1.63473 
12 1 17.3437 1.63571 1.55222 
231 1 15.808 3.21117 3.20197 
14 1 20.5081 1.62786 1.64576 
33 1 18.9666 3.19514 0.0802994 
233 1 18.9722 3.29425 3.20635 
35 1 22.0966 3.20461 0.068465 
235 1 22.1007 3.2067 3.21318 
2071 2 18.1773 1.63234 3.201 
16 1 23.6431 1.61717 1.63255 
18 1 26.7404 1.60787 1.57447 
217 1 25.2386 0.0413872 3.20445 
237 1 25.2487 3.13882 3.14007 
221 1 31.5504 3.21689 3.22896 
20 1 30.0681 1.65568 1.66041 
39 1 28.3991 3.19483 0.0876995 
239 1 28.3869 3.20388 3.27482 
2019 2 28.3837 1.59457 2.37164 
22 1 1.6473 4.79318 1.63157 
42 1 1.64458 7.93063 1.63332 
43 1 3.22058 6.36983 0.0595602 
243 1 3.2178 6.35443 3.20763 
24 1 4.79532 4.77176 1.63459 
44 1 4.79455 7.90611 1.71377 
26 1 7.916 4.77023 1.63454 
45 1 6.35769 6.37762 0.0657379 
46 1 7.92848 7.93131 1.6444 
245 1 6.3677 6.34688 3.22095 
28 1 11.0594 4.7745 1.64486 
47 1 9.48882 6.36381 0.0657931 
48 1 11.0626 7.94524 1.64429 
247 1 9.4994 6.35283 3.21217 
49 1 12.5632 6.36411 0.0974793 
249 1 12.6473 6.35601 3.20587 
30 1 14.2159 4.78387 1.62728 
50 1 14.2176 7.93539 1.62334 
32 1 17.3778 4.78301 1.62339 
51 1 15.799 6.35626 0.1285 
52 1 17.3755 7.93805 1.62262 
251 1 15.796 6.35777 3.20376 
34 1 20.5405 4.78811 1.63685 
53 1 19.0278 6.36809 0.0943681 
54 1 20.5282 7.95848 1.6339 
253 1 18.9412 6.37752 3.2024 
255 1 22.0746 6.3987 3.18201 
36 1 23.6598 4.79119 1.64678 
56 1 23.6618 7.95953 1.61598 
38 1 26.7177 4.78041 1.61148 
58 1 26.8274 7.94609 1.61487 
257 1 25.2427 6.46931 3.17085 
2016 2 25.2381 4.80329 3.94294 
241 1 31.5364 6.36985 3.20494 
40 1 30.0656 4.77741 1.60354 
60 1 29.9768 7.92484 1.63661 
259 1 28.3904 6.444 3.22907 
2061 2 28.394 4.81324 2.357 
62 1 1.63779 11.078 1.6348 
261 1 0.0661539 9.50028 3.21115 
281 1 0.0914054 12.5791 3.21677 
263 1 3.21301 9.50049 3.20185 
283 1 3.2131 12.652 3.20152 
64 1 4.78527 11.0642 1.62694 
66 1 7.93758 11.0906 1.64334 
265 1 6.36004 9.50498 3.2096 
285 1 6.35361 12.6507 3.20453 
68 1 11.0811 11.0991 1.63155 
267 1 9.49944 9.51072 3.20936 
287 1 9.49996 12.6543 3.20772 
269 1 12.651 9.51019 3.20104 
289 1 12.6506 12.6275 3.28295 
2064 2 12.6382 13.4397 1.6298 
70 1 14.2179 11.0945 1.63043 
71 1 15.799 9.51218 0.0672499 
72 1 17.374 11.0842 1.63056 
271 1 15.7988 9.50785 3.19777 
291 1 15.8002 12.6502 3.20384 
74 1 20.5268 11.0865 1.63102 
273 1 18.9446 9.51389 3.20157 
93 1 18.9632 12.6504 0.0664019 
293 1 18.9467 12.653 3.20316 
275 1 22.0958 9.52514 3.2021 
95 1 22.0991 12.6612 0.0548989 
295 1 22.0967 12.6579 3.2015 
76 1 23.6736 11.0895 1.62612 
78 1 26.823 11.0913 1.62991 
277 1 25.2445 9.53035 3.19635 
97 1 25.2474 12.6598 0.0696089 
297 1 25.2465 12.6619 3.20246 
80 1 29.9707 11.0916 1.64382 
279 1 28.3971 9.52453 3.21656 
299 1 28.4053 12.6667 3.2097 
82 1 1.6254 14.2274 1.64628 
102 1 1.64925 17.3822 1.62989 
301 1 0.0916075 15.8752 3.20659 
303 1 3.21517 15.8051 3.20471 
84 1 4.77895 14.2237 1.63147 
104 1 4.78723 17.3769 1.63614 
86 1 7.91573 14.2292 1.62895 
106 1 7.92797 17.3753 1.62615 
305 1 6.35244 15.8022 3.20366 
88 1 10.9876 14.2544 1.62605 
108 1 11.0746 17.3709 1.62463 
307 1 9.49069 15.8072 3.20519 
309 1 12.646 15.7859 3.19145 
90 1 14.2967 14.2424 1.64484 
110 1 14.2171 17.3779 1.6334 
92 1 17.3831 14.2286 1.62692 
111 1 15.7886 15.8246 0.119831 
112 1 17.3772 17.3826 1.62401 
311 1 15.8047 15.8074 3.21091 
94 1 20.5115 14.2208 1.63304 
114 1 20.5098 17.3837 1.63289 
313 1 18.9458 15.8009 3.19755 
115 1 22.0652 15.8022 0.138695 
315 1 22.0856 15.7934 3.20112 
96 1 23.6704 14.2288 1.62516 
116 1 23.6634 17.3709 1.62527 
98 1 26.8228 14.2367 1.62568 
118 1 26.8229 17.3887 1.62448 
317 1 25.2545 15.7982 3.18823 
100 1 29.9401 14.2314 1.5495 
120 1 29.9753 17.3687 1.6373 
319 1 28.4086 15.7967 3.20393 
2097 2 30.7299 14.2274 3.21468 
122 1 1.64446 20.5276 1.63328 
321 1 0.0689332 18.9605 3.20475 
141 1 0.0666629 22.096 0.0680841 
341 1 0.0683038 22.1006 3.20408 
323 1 3.21433 18.9528 3.20613 
343 1 3.21511 22.098 3.20488 
124 1 4.78709 20.5231 1.63183 
126 1 7.93355 20.5201 1.62463 
325 1 6.35996 18.9492 3.20184 
345 1 6.35869 22.095 3.19371 
128 1 11.0784 20.5155 1.62553 
327 1 9.5074 18.9463 3.19566 
347 1 9.50817 22.092 3.19606 
329 1 12.6505 18.9434 3.2005 
349 1 12.6508 22.0864 3.19504 
130 1 14.2221 20.5189 1.6252 
131 1 15.7983 18.9525 0.0554159 
132 1 17.3725 20.5249 1.62334 
331 1 15.7968 18.9481 3.19028 
151 1 15.7951 22.0918 0.054015 
351 1 15.7974 22.0913 3.19467 
133 1 18.9602 18.9629 0.0623397 
134 1 20.523 20.5262 1.62723 
333 1 18.9448 18.9516 3.19817 
153 1 18.9481 22.0953 0.0541461 
353 1 18.9438 22.0959 3.19271 
135 1 22.0881 18.9488 0.0564169 
335 1 22.0931 18.9488 3.20206 
155 1 22.1005 22.0927 0.0571926 
355 1 22.0967 22.0925 3.1938 
136 1 23.6733 20.5241 1.63453 
137 1 25.1754 18.9384 0.0727605 
138 1 26.8273 20.5518 1.71718 
337 1 25.2494 18.9491 3.2054 
157 1 25.2539 22.0871 0.0620522 
357 1 25.2398 22.1031 3.20918 
140 1 29.9691 20.5249 1.63371 
339 1 28.4031 18.9474 3.20236 
159 1 28.393 22.0842 0.0603967 
359 1 28.4081 22.108 3.21156 
142 1 1.64162 23.6699 1.63247 
161 1 0.0673832 25.2429 0.0598384 
162 1 1.6393 26.8092 1.63018 
163 1 3.2144 25.2407 0.0609549 
363 1 3.2149 25.2406 3.2059 
144 1 4.78634 23.6686 1.6321 
164 1 4.78576 26.8102 1.63474 
146 1 7.93132 23.6639 1.62801 
166 1 7.92231 26.8016 1.62356 
365 1 6.35968 25.2403 3.20834 
148 1 11.0779 23.6594 1.62498 
168 1 11.0793 26.803 1.62829 
367 1 9.50683 25.2373 3.19541 
169 1 12.6505 25.2296 0.054668 
369 1 12.659 25.2262 3.19174 
150 1 14.2257 23.6601 1.62378 
170 1 14.2241 26.8045 1.63115 
152 1 17.3702 23.6644 1.62545 
171 1 15.7969 25.2344 0.0537648 
172 1 17.3679 26.8048 1.6266 
371 1 15.7986 25.2356 3.2 
154 1 20.5214 23.6645 1.62337 
173 1 18.9442 25.2345 0.0525924 
174 1 20.5191 26.8014 1.62334 
373 1 18.9413 25.2358 3.19472 
175 1 22.0979 25.2344 0.0553082 
375 1 22.0973 25.2346 3.19006 
156 1 23.6743 23.664 1.62541 
176 1 23.6725 26.804 1.62666 
158 1 26.8237 23.6664 1.63061 
177 1 25.2503 25.2351 0.0585209 
178 1 26.8212 26.8068 1.62976 
377 1 25.2474 25.2375 3.19901 
361 1 31.5398 25.2395 3.20109 
160 1 29.9682 23.6697 1.63095 
179 1 28.3962 25.2415 0.0602922 
180 1 29.9686 26.8148 1.62917 
379 1 28.3955 25.2419 3.2025 
203 1 3.19355 31.5294 3.21495 
182 1 1.64761 29.9416 1.64072 
383 1 3.21188 28.3741 3.20988 
184 1 4.77826 29.9496 1.62212 
185 1 6.3567 28.3821 0.0575568 
186 1 7.91793 29.9718 1.63368 
385 1 6.36292 28.3844 3.20933 
207 1 9.58479 31.5026 3.19352 
188 1 11.0897 29.953 1.61238 
387 1 9.48248 28.3855 3.11413 
189 1 12.6536 28.3749 0.0606112 
389 1 12.6429 28.3789 3.2065 
211 1 15.8138 31.5363 3.20206 
190 1 14.2341 29.9461 1.63998 
192 1 17.3679 29.9529 1.63092 
391 1 15.7961 28.3783 3.205 
13 1 18.947 31.5257 0.0676878 
213 1 18.9665 31.4433 3.19734 
215 1 22.0724 31.5067 3.19117 
194 1 20.5215 29.9382 1.62111 
393 1 18.9379 28.3667 3.19943 
395 1 22.0941 28.3688 3.19415 
196 1 23.6646 29.9435 1.62949 
198 1 26.8068 29.9411 1.6386 
397 1 25.2452 28.3724 3.20248 
201 1 31.5414 31.5213 3.21498 
219 1 28.3885 31.4436 3.2354 
381 1 31.5371 28.3804 3.20262 
200 1 29.971 29.971 1.62344 
399 1 28.3925 28.3731 3.20407 
202 1 1.63448 1.63809 4.80995 
402 1 1.73469 1.64156 7.95428 
423 1 3.29858 3.17429 6.36637 
2043 2 1.65968 4.00759 6.36696 
204 1 4.79231 1.61583 4.78475 
404 1 4.80253 1.61913 7.94649 
206 1 7.93427 1.65483 4.87319 
406 1 7.93189 1.6288 7.94006 
425 1 6.36039 3.20976 6.37987 
208 1 11.0714 1.63192 4.77013 
408 1 11.0774 1.63815 7.92664 
427 1 9.51725 3.21232 6.36472 
409 1 12.6627 0.0598046 6.35863 
429 1 12.6537 3.12571 6.32641 
210 1 14.2348 1.62994 4.76913 
410 1 14.2286 1.64017 7.9295 
212 1 17.3323 1.64303 4.84349 
411 1 15.7907 0.0546832 6.35523 
412 1 17.3669 1.6239 7.9334 
431 1 15.7888 3.21652 6.35759 
214 1 20.5136 1.6347 4.77405 
414 1 20.4328 1.62221 7.95623 
433 1 18.9446 3.21029 6.34592 
435 1 22.0863 3.28839 6.29966 
2099 2 22.0434 1.62352 7.05709 
216 1 23.621 1.49878 4.79259 
416 1 23.6609 1.60078 7.95684 
218 1 26.8069 1.62208 4.76893 
417 1 25.244 0.0601225 6.36165 
418 1 26.8693 1.60944 7.91984 
437 1 25.2636 3.24944 6.26919 
2058 2 24.2239 3.20499 4.7058 
2069 2 25.2641 2.52051 7.94511 
421 1 31.4569 3.24479 6.32472 
220 1 29.9661 1.61894 4.78415 
420 1 29.8866 1.63894 7.95137 
439 1 28.382 3.2076 6.34915 
2050 2 31.5526 1.60997 7.17444 
222 1 1.64181 4.81274 4.70882 
422 1 1.63719 4.80661 8.02496 
242 1 1.64108 7.92598 4.7852 
442 1 1.63819 7.9229 7.9364 
443 1 3.20158 6.34167 6.36715 
224 1 4.77805 4.78659 4.79601 
424 1 4.77778 4.78334 7.94316 
244 1 4.77537 7.91899 4.78694 
444 1 4.78177 7.92611 7.93391 
226 1 7.94344 4.78837 4.79784 
426 1 7.92094 4.77459 7.93584 
246 1 7.92815 7.93648 4.79802 
445 1 6.35155 6.35726 6.36255 
446 1 7.92452 7.84587 7.9554 
2045 2 12.6515 4.78457 7.12778 
228 1 11.084 4.78028 4.79257 
428 1 11.0025 4.78732 7.95652 
248 1 11.0734 7.93223 4.76331 
447 1 9.5086 6.36197 6.35583 
448 1 11.0724 7.92963 7.91845 
449 1 12.6538 6.44176 6.32243 
230 1 14.218 4.78304 4.78726 
430 1 14.3034 4.7875 7.95178 
250 1 14.2331 7.93759 4.76387 
450 1 14.2253 7.93034 7.92036 
232 1 17.3659 4.78649 4.77837 
432 1 17.3779 4.78358 7.92483 
252 1 17.3696 7.93625 4.77341 
451 1 15.7949 6.3619 6.3474 
452 1 17.3674 7.93367 7.92121 
234 1 20.5093 4.81404 4.77626 
434 1 20.5165 4.77837 7.92267 
254 1 20.5121 7.95101 4.7765 
453 1 18.9355 6.36579 6.35097 
454 1 20.5025 7.94575 7.92254 
455 1 22.0633 6.39961 6.3789 
236 1 23.5818 4.91114 4.78799 
436 1 23.683 4.75127 7.84889 
256 1 23.661 7.95967 4.77632 
456 1 23.6667 7.92306 7.92071 
238 1 26.8822 4.80299 4.79374 
438 1 26.8032 4.77032 7.91924 
258 1 26.8106 7.95096 4.781 
457 1 25.2423 6.36551 6.34031 
458 1 26.8161 7.94175 7.9112 
441 1 31.546 6.34916 6.3602 
240 1 29.9619 4.80288 4.75829 
440 1 29.9646 4.78028 7.93463 
260 1 29.9748 7.94472 4.78958 
459 1 28.398 6.36906 6.34842 
460 1 29.9711 7.92414 7.93126 
262 1 1.6544 11.0621 4.77825 
462 1 1.64285 11.0703 7.92672 
463 1 3.20565 9.49728 6.35804 
483 1 3.22284 12.6507 6.3472 
264 1 4.77955 11.0821 4.77009 
464 1 4.78764 11.077 7.9283 
266 1 7.9264 11.0739 4.79412 
465 1 6.27586 9.50501 6.33073 
466 1 7.92753 11.1685 7.95337 
485 1 6.35549 12.6505 6.34892 
2002 2 7.92573 9.50689 7.15817 
268 1 11.0702 11.0781 4.77547 
467 1 9.5757 9.50318 6.33076 
468 1 11.072 11.0852 7.92799 
487 1 9.49965 12.6515 6.3515 
469 1 12.6588 9.51368 6.34733 
489 1 12.6384 12.6395 6.34863 
270 1 14.2343 11.0716 4.77844 
470 1 14.2252 11.0824 7.92407 
272 1 17.3736 11.0774 4.77153 
471 1 15.7986 9.5037 6.34651 
472 1 17.3644 11.0752 7.92004 
491 1 15.8047 12.6434 6.34142 
274 1 20.5204 11.0852 4.7722 
473 1 18.9398 9.51069 6.34521 
474 1 20.5242 11.0733 7.90867 
493 1 18.9444 12.6528 6.33301 
475 1 22.0918 9.5158 6.34871 
495 1 22.0948 12.6553 6.34416 
276 1 23.6672 11.0898 4.77455 
476 1 23.6679 11.0782 7.92129 
278 1 26.809 11.0828 4.77038 
477 1 25.2378 9.51494 6.34899 
478 1 26.8168 11.0794 7.92713 
497 1 25.2321 12.657 6.35022 
461 1 31.5462 9.50244 6.35628 
481 1 31.6304 12.6461 6.32646 
280 1 29.9674 11.0906 4.80024 
479 1 28.3907 9.51414 6.3524 
480 1 29.9659 10.9968 7.95291 
499 1 28.3037 12.6546 6.33335 
2040 2 29.9684 12.6479 7.12586 
282 1 1.63896 14.233 4.76467 
482 1 1.64202 14.224 7.92181 
302 1 1.6431 17.3804 4.77797 
501 1 0.0791473 15.7981 6.34641 
502 1 1.65119 17.3806 7.93015 
503 1 3.21654 15.8053 6.34089 
284 1 4.7851 14.2295 4.77396 
484 1 4.79179 14.2158 7.91949 
304 1 4.78831 17.3849 4.78834 
504 1 4.80562 17.3122 7.93751 
286 1 7.92376 14.2228 4.7753 
486 1 7.92892 14.2377 7.92714 
306 1 7.936 17.37 4.76718 
505 1 6.36009 15.8044 6.34585 
506 1 7.92962 17.3781 7.92348 
288 1 11.0675 14.2246 4.76739 
488 1 11.0712 14.2266 7.923 
308 1 11.0782 17.3712 4.76142 
507 1 9.49129 15.7938 6.34111 
508 1 11.0714 17.3502 7.8387 
509 1 12.638 15.781 6.33049 
290 1 14.226 14.2217 4.76534 
490 1 14.2179 14.1896 7.84547 
310 1 14.2187 17.3668 4.77274 
510 1 14.185 17.2672 7.92381 
292 1 17.3739 14.225 4.77046 
492 1 17.3606 14.2242 7.91406 
312 1 17.3787 17.3678 4.76254 
511 1 15.7978 15.7994 6.34239 
512 1 17.3581 17.3807 7.90605 
294 1 20.5195 14.2276 4.77077 
494 1 20.5217 14.2295 7.9001 
314 1 20.5214 17.3738 4.7694 
513 1 18.942 15.8012 6.33903 
514 1 20.5177 17.3705 7.90858 
515 1 22.0944 15.805 6.33606 
296 1 23.6696 14.2296 4.77214 
496 1 23.667 14.2164 7.924 
316 1 23.6733 17.3454 4.6961 
516 1 23.6643 17.2613 7.9503 
298 1 26.8137 14.2378 4.76976 
498 1 26.8169 14.2238 7.93039 
318 1 26.8215 17.3751 4.76833 
517 1 25.2418 15.8053 6.34166 
518 1 26.8138 17.3546 7.91656 
300 1 29.9419 14.2177 4.88031 
500 1 29.9821 14.297 7.95835 
320 1 29.9707 17.3704 4.77813 
519 1 28.384 15.807 6.35652 
520 1 30.0056 17.3558 7.90336 
322 1 1.63384 20.5361 4.77291 
521 1 0.0632098 18.9572 6.35102 
522 1 1.64341 20.5339 7.93165 
541 1 0.0662809 22.1008 6.35346 
523 1 3.13657 18.9612 6.33067 
543 1 3.21215 22.0999 6.35043 
324 1 4.77869 20.5129 4.78112 
524 1 4.79376 20.6289 7.95683 
326 1 7.94753 20.5248 4.75856 
525 1 6.44289 18.9583 6.32115 
526 1 7.91922 20.5443 7.92314 
545 1 6.36304 22.0748 6.26376 
2081 2 4.79165 18.9767 7.14355 
328 1 11.0812 20.5137 4.77336 
527 1 9.51167 18.9525 6.34874 
528 1 11.0781 20.5089 7.93331 
547 1 9.505 22.0904 6.3489 
529 1 12.664 18.9428 6.35555 
549 1 12.6377 22.0889 6.33664 
330 1 14.2218 20.5178 4.77137 
530 1 14.199 20.6065 7.9234 
332 1 17.373 20.5241 4.76068 
531 1 15.8173 18.9407 6.26422 
532 1 17.3396 20.5044 7.91751 
551 1 15.8047 22.084 6.33795 
2082 2 14.9747 18.9336 7.90849 
334 1 20.5143 20.5244 4.75921 
533 1 18.932 18.9479 6.34031 
534 1 20.5148 20.5238 7.90847 
553 1 18.9368 22.0905 6.33733 
535 1 22.0153 18.9675 6.34315 
555 1 22.0924 22.0911 6.31269 
2027 2 23.6792 18.1787 6.34352 
336 1 23.6735 20.5048 4.77215 
536 1 23.6583 20.5833 7.86282 
338 1 26.8341 20.5332 4.7757 
537 1 25.3362 18.9778 6.35598 
538 1 26.8491 20.5546 7.92169 
557 1 25.2513 22.1034 6.32895 
2038 2 23.6595 18.9437 8.71044 
340 1 29.9719 20.5286 4.77966 
539 1 28.4099 18.9516 6.3433 
540 1 29.9707 20.5387 7.93628 
559 1 28.402 22.1094 6.35153 
342 1 1.63871 23.6708 4.77749 
542 1 1.62976 23.6742 7.92942 
362 1 1.62997 26.804 4.77032 
562 1 1.62909 26.8062 7.94106 
563 1 3.20379 25.253 6.34554 
2011 2 6.35473 22.8713 7.92782 
344 1 4.78482 23.6729 4.78101 
544 1 4.70796 23.7091 7.92818 
364 1 4.79057 26.8227 4.78898 
564 1 4.78564 26.8262 7.92463 
346 1 7.93789 23.6703 4.77567 
546 1 8.01107 23.6915 7.92748 
366 1 7.95398 26.8114 4.77024 
565 1 6.36209 25.2327 6.35675 
566 1 7.93304 26.797 7.94265 
348 1 11.0791 23.6546 4.77034 
548 1 11.0855 23.6591 7.92538 
368 1 11.1081 26.7315 4.77104 
567 1 9.51284 25.244 6.34601 
568 1 11.0714 26.8154 7.91855 
569 1 12.6562 25.2312 6.3561 
350 1 14.2264 23.6613 4.76318 
550 1 14.2261 23.6406 7.84118 
370 1 14.222 26.8054 4.77541 
570 1 14.2153 26.8035 7.92892 
352 1 17.3697 23.6668 4.76899 
552 1 17.369 23.6631 7.92422 
372 1 17.3678 26.8106 4.77588 
571 1 15.7995 25.2401 6.35201 
572 1 17.3822 26.8294 7.92283 
354 1 20.5163 23.6686 4.75013 
554 1 20.5486 23.6738 7.81039 
374 1 20.5154 26.8048 4.75882 
573 1 18.9378 25.2413 6.34409 
574 1 20.5429 26.8079 7.83025 
575 1 22.1091 25.246 6.31907 
356 1 23.6716 23.6671 4.76325 
556 1 23.6543 23.686 7.90644 
376 1 23.6753 26.807 4.76638 
576 1 23.6651 26.8117 7.92265 
358 1 26.824 23.6758 4.77291 
558 1 26.8093 23.6941 7.91637 
378 1 26.8186 26.8101 4.77706 
577 1 25.2432 25.2449 6.34215 
578 1 26.8065 26.813 7.92377 
561 1 31.54 25.2422 6.34987 
360 1 29.9717 23.674 4.77801 
560 1 29.9758 23.6831 7.91932 
380 1 29.9642 26.8084 4.77608 
579 1 28.3931 25.2468 6.34863 
580 1 29.9716 26.8122 7.92218 
403 1 3.21642 31.5143 6.36285 
382 1 1.64386 29.9462 4.77869 
582 1 1.64217 29.9634 7.93793 
583 1 3.12532 28.3554 6.35946 
405 1 6.35562 31.5113 6.35488 
384 1 4.77232 29.9659 4.71669 
584 1 4.78855 29.9816 8.01698 
386 1 7.94393 29.9662 4.77062 
585 1 6.45043 28.357 6.35511 
586 1 7.92531 29.9675 7.94073 
2039 2 4.78801 29.1479 6.37208 
407 1 9.50732 31.5268 6.35366 
388 1 11.1241 30.0206 4.78344 
587 1 9.48056 28.3875 6.43736 
588 1 11.0773 29.9652 7.91876 
589 1 12.6398 28.3792 6.34544 
2094 2 10.2753 28.38 4.77614 
390 1 14.2272 29.9539 4.77763 
590 1 14.2105 29.9564 7.92893 
392 1 17.3606 29.9553 4.78161 
591 1 15.7832 28.3751 6.34934 
592 1 17.2755 29.9377 7.93109 
413 1 18.9452 31.5468 6.27155 
415 1 22.0814 31.4218 6.32038 
394 1 20.5091 29.9257 4.76978 
593 1 18.9381 28.3965 6.3556 
594 1 20.581 29.9201 7.93347 
595 1 22.1071 28.3746 6.33632 
2086 2 18.9322 30.7542 7.93777 
396 1 23.6768 29.9297 4.7693 
596 1 23.6769 29.9585 7.93196 
398 1 26.8084 29.9432 4.79218 
597 1 25.2464 28.3809 6.35709 
598 1 26.8186 29.9586 7.94722 
401 1 31.5399 31.4484 6.33134 
419 1 28.393 31.5195 6.35462 
581 1 31.5292 28.3751 6.35877 
400 1 29.9648 29.9361 4.78307 
599 1 28.3891 28.3812 6.35954 
600 1 29.9578 29.9595 7.94855 
602 1 1.64176 1.63458 11.0811 
801 1 0.0800604 0.0691173 12.6638 
821 1 0.0716701 3.19498 12.6619 
623 1 3.22241 3.21574 9.5206 
823 1 3.20933 3.20798 12.6606 
604 1 4.78396 1.63388 11.0896 
606 1 7.91512 1.63963 11.0702 
625 1 6.35078 3.20748 9.51054 
825 1 6.3513 3.20855 12.6543 
608 1 11.0821 1.64053 11.0662 
627 1 9.49908 3.20413 9.50387 
827 1 9.50124 3.19808 12.5706 
609 1 12.6547 0.0737024 9.49419 
809 1 12.6223 0.0793864 12.6455 
629 1 12.6509 3.22107 9.48657 
829 1 12.6457 3.22098 12.6454 
610 1 14.2165 1.64596 11.075 
611 1 15.7905 0.0651698 9.50954 
612 1 17.3583 1.65622 11.0865 
811 1 15.7906 0.0933798 12.6501 
631 1 15.8032 3.20584 9.50683 
831 1 15.794 3.22084 12.6533 
613 1 18.9359 0.0961844 9.59127 
614 1 20.5244 1.65305 11.0815 
813 1 18.9342 0.0876898 12.6577 
633 1 18.9386 3.21775 9.50533 
833 1 18.9386 3.21951 12.6537 
615 1 22.0809 0.0671198 9.49475 
815 1 22.0907 0.0729387 12.6532 
635 1 22.0986 3.22241 9.4881 
835 1 22.0845 3.21218 12.6602 
616 1 23.6609 1.64613 11.0776 
617 1 25.2432 0.078237 9.50505 
618 1 26.8143 1.63427 11.0849 
817 1 25.2303 0.0776316 12.6658 
637 1 25.232 3.26294 9.61337 
837 1 25.2477 3.21177 12.6746 
601 1 31.5426 0.0670809 9.49159 
621 1 31.5439 3.19124 9.48756 
619 1 28.383 0.104229 9.51108 
620 1 29.9693 1.61934 11.0812 
639 1 28.3811 3.21785 9.51078 
839 1 28.3944 3.20182 12.6618 
622 1 1.63312 4.77992 11.0937 
642 1 1.63567 7.92573 11.0856 
643 1 3.21264 6.36508 9.52286 
843 1 3.20236 6.36384 12.6702 
624 1 4.77399 4.78427 11.0892 
644 1 4.78027 7.93704 11.0808 
626 1 7.91452 4.77585 11.0721 
645 1 6.34221 6.35218 9.51319 
646 1 7.92883 7.93403 11.0722 
845 1 6.34303 6.3561 12.6373 
628 1 11.0816 4.80144 11.0809 
647 1 9.4989 6.35417 9.52003 
648 1 11.0715 7.9593 10.9878 
847 1 9.41724 6.31709 12.6584 
649 1 12.6546 6.35438 9.48673 
849 1 12.7377 6.33929 12.6441 
2088 2 11.0718 7.13429 12.6389 
630 1 14.2322 4.78089 11.0639 
650 1 14.2198 7.93271 11.0644 
632 1 17.3694 4.78855 11.0757 
651 1 15.8053 6.36658 9.50346 
652 1 17.3683 7.92811 11.0728 
851 1 15.8066 6.35953 12.6476 
634 1 20.5116 4.77887 11.0683 
653 1 18.9331 6.3605 9.4976 
654 1 20.5072 7.93929 11.0761 
853 1 18.934 6.35913 12.6493 
655 1 22.0064 6.38202 9.49835 
855 1 22.0088 6.33405 12.6501 
636 1 23.6638 4.77703 11.1723 
656 1 23.6684 7.93907 10.9806 
638 1 26.8485 4.79045 11.0901 
657 1 25.326 6.38172 9.50064 
658 1 26.8359 7.92479 11.0803 
857 1 25.3258 6.32991 12.66 
2051 2 23.6654 5.5703 9.50399 
2068 2 23.6683 7.1489 12.6492 
641 1 31.5194 6.3559 9.5183 
841 1 31.5176 6.34513 12.6457 
640 1 29.9956 4.69331 11.0782 
659 1 28.3682 6.35432 9.41582 
660 1 29.9905 8.00158 11.078 
859 1 28.3725 6.34822 12.7435 
2078 2 29.1683 6.34574 11.0786 
662 1 1.64379 11.0601 11.0715 
681 1 0.0576665 12.6421 9.47614 
881 1 0.0758437 12.6262 12.5841 
663 1 3.21663 9.50023 9.50488 
863 1 3.20855 9.49765 12.6673 
683 1 3.2138 12.6453 9.49504 
883 1 3.20655 12.6434 12.6534 
664 1 4.78313 11.0753 11.0765 
665 1 6.36059 9.50658 9.48847 
666 1 7.93003 11.0796 11.0715 
865 1 6.36176 9.51181 12.6401 
685 1 6.34738 12.6611 9.51157 
885 1 6.35356 12.6487 12.6493 
667 1 9.48878 9.5129 9.48115 
668 1 11.0723 11.0759 11.0673 
867 1 9.50528 9.48881 12.6416 
687 1 9.50853 12.6662 9.50836 
887 1 9.49601 12.6451 12.6487 
669 1 12.6528 9.51359 9.48648 
869 1 12.6395 9.48821 12.6367 
689 1 12.6522 12.6651 9.49894 
889 1 12.6359 12.6334 12.6504 
670 1 14.2202 11.0756 11.0685 
671 1 15.7886 9.5012 9.48838 
672 1 17.3412 11.0006 11.0713 
871 1 15.7884 9.49266 12.6502 
691 1 15.7967 12.658 9.49824 
891 1 15.8105 12.634 12.6445 
2092 2 18.2001 12.6383 11.0735 
673 1 18.938 9.51026 9.49412 
674 1 20.5029 11.0814 11.0682 
873 1 18.9452 9.5049 12.6503 
693 1 18.9619 12.649 9.39842 
893 1 18.9826 12.6478 12.7379 
675 1 22.0841 9.50673 9.49029 
875 1 22.0952 9.47184 12.6387 
695 1 22.0892 12.6438 9.49637 
895 1 22.1169 12.5651 12.6425 
676 1 23.6729 11.0603 11.0569 
677 1 25.2504 9.50333 9.4897 
678 1 26.8208 11.0723 11.0732 
877 1 25.247 9.46864 12.6359 
697 1 25.2443 12.6462 9.50022 
897 1 25.2476 12.6387 12.6522 
661 1 31.5538 9.49847 9.50163 
861 1 31.5372 9.51375 12.6514 
679 1 28.3851 9.49376 9.50343 
680 1 29.9598 11.0784 11.0732 
879 1 28.3843 9.48683 12.6466 
699 1 28.3981 12.6483 9.49095 
899 1 28.407 12.645 12.6576 
682 1 1.6214 14.1427 11.0528 
701 1 0.0889393 15.8063 9.51371 
702 1 1.6173 17.4712 11.0784 
901 1 0.084369 15.7937 12.6427 
703 1 3.22957 15.7851 9.43088 
903 1 3.22152 15.775 12.7239 
2053 2 2.39822 15.81 11.0762 
684 1 4.76951 14.2257 11.0775 
704 1 4.76719 17.3651 11.0791 
686 1 7.92689 14.2248 11.0774 
705 1 6.35931 15.7983 9.50807 
706 1 7.92185 17.3735 11.0803 
905 1 6.35634 15.7877 12.6465 
688 1 11.0721 14.2229 11.0808 
707 1 9.49394 15.8161 9.50266 
708 1 11.0671 17.3508 11.1603 
907 1 9.49008 15.7876 12.658 
709 1 12.546 15.8347 9.5025 
909 1 12.6432 15.7856 12.658 
2098 2 11.0774 18.1633 9.49972 
2007 2 14.1986 15.0118 9.49944 
690 1 14.216 14.1904 11.1526 
710 1 14.209 17.3498 11.0745 
692 1 17.3272 14.2699 11.0704 
711 1 15.8553 15.8315 9.48748 
712 1 17.3714 17.3578 11.0878 
911 1 15.779 15.7875 12.655 
694 1 20.4662 14.2124 10.9866 
713 1 18.9301 15.7991 9.48158 
714 1 20.492 17.3754 10.9992 
913 1 18.8733 15.7483 12.6624 
715 1 22.0729 15.78 9.50484 
915 1 22.1946 15.7952 12.6637 
2062 2 21.2641 14.1984 12.6381 
2076 2 20.5214 16.5732 12.6528 
696 1 23.6598 14.2081 11.0756 
716 1 23.5924 17.363 11.0411 
698 1 26.8228 14.2053 11.0813 
717 1 25.2481 15.7878 9.51337 
718 1 26.8446 17.2621 11.0846 
917 1 25.2403 15.7942 12.6539 
2024 2 25.2396 18.1684 11.0921 
700 1 29.9718 14.2235 11.0784 
719 1 28.4032 15.7918 9.50073 
720 1 29.9703 17.3839 11.0809 
919 1 28.4058 15.792 12.6582 
721 1 0.0617015 18.9618 9.49366 
722 1 1.64418 20.5339 11.083 
921 1 0.0678102 18.9551 12.6736 
741 1 0.0600884 22.1032 9.50517 
941 1 0.0681441 22.1064 12.6646 
723 1 3.22199 18.9517 9.48853 
923 1 3.21717 18.9419 12.6707 
743 1 3.20279 22.11 9.51451 
943 1 3.2044 22.1067 12.6506 
724 1 4.77331 20.5156 11.0863 
725 1 6.3402 18.9521 9.49423 
726 1 7.92687 20.517 11.0951 
925 1 6.34792 18.942 12.6631 
745 1 6.35687 22.0771 9.59316 
945 1 6.36377 22.1045 12.6548 
727 1 9.41716 18.9753 9.49698 
728 1 11.0776 20.5019 11.0718 
927 1 9.49702 18.9441 12.6538 
747 1 9.50352 22.0896 9.50753 
947 1 9.50467 22.0883 12.6554 
729 1 12.739 18.9714 9.49229 
929 1 12.6488 18.9377 12.6523 
749 1 12.6501 22.1049 9.51179 
949 1 12.6398 22.074 12.6637 
730 1 14.2279 20.5191 11.0885 
731 1 15.8061 18.9187 9.56164 
732 1 17.3463 20.4266 11.1094 
931 1 15.7855 18.9222 12.6773 
751 1 15.8006 22.0951 9.51057 
951 1 15.817 22.0718 12.6604 
733 1 18.924 18.9464 9.49375 
734 1 20.5064 20.5252 11.0902 
933 1 18.954 18.9147 12.6712 
753 1 18.9304 22.0265 9.43432 
953 1 18.9776 22.0155 12.7639 
735 1 22.0075 18.9691 9.50931 
935 1 22.0869 18.9289 12.6493 
755 1 22.0795 22.0944 9.48898 
955 1 22.1058 22.0655 12.671 
736 1 23.6787 20.5095 11.0575 
737 1 25.342 18.9803 9.44782 
738 1 26.7565 20.5174 11.1159 
937 1 25.2441 18.9731 12.7391 
757 1 25.2192 22.1072 9.39235 
957 1 25.201 22.0955 12.7556 
2003 2 25.9211 22.1727 11.0766 
739 1 28.4303 18.8881 9.39082 
740 1 30.0272 20.5235 11.1125 
939 1 28.4289 18.953 12.7475 
759 1 28.384 22.2037 9.48009 
959 1 28.385 22.0982 12.6397 
2022 2 28.3962 20.5352 10.23 
2037 2 27.6771 18.9021 11.0736 
742 1 1.63537 23.6769 11.0822 
761 1 0.0651287 25.2459 9.50774 
762 1 1.64167 26.821 11.0839 
961 1 0.0776696 25.2472 12.6596 
763 1 3.20394 25.2558 9.51186 
963 1 3.21246 25.2496 12.6524 
744 1 4.78057 23.6769 11.0773 
764 1 4.78623 26.818 11.0767 
746 1 7.93436 23.6694 11.0791 
765 1 6.35428 25.2293 9.49824 
766 1 7.92035 26.8068 11.0781 
965 1 6.35589 25.2434 12.6497 
748 1 11.0755 23.6568 11.0842 
767 1 9.50359 25.2419 9.51561 
768 1 11.0623 26.8229 11.0868 
967 1 9.49903 25.2305 12.6599 
769 1 12.5661 25.2616 9.50353 
969 1 12.6348 25.2338 12.6507 
750 1 14.2183 23.6334 11.1669 
770 1 14.1275 26.8078 11.0544 
752 1 17.2937 23.7151 11.0503 
771 1 15.8443 25.3058 9.49661 
772 1 17.4541 26.8504 11.0562 
971 1 15.7906 25.1831 12.6866 
2020 2 14.2173 24.4284 9.50628 
754 1 20.6243 23.6602 11.1342 
773 1 18.8849 25.2239 9.49897 
774 1 20.5488 26.8133 11.1613 
973 1 18.9289 25.321 12.6811 
775 1 22.0687 25.2398 9.49377 
975 1 22.108 25.2532 12.6734 
2028 2 18.1507 22.0767 11.107 
2047 2 19.831 23.6363 9.49 
2065 2 19.7695 26.8505 9.49686 
2077 2 18.9417 23.6568 11.9116 
756 1 23.6752 23.6521 11.0671 
776 1 23.662 26.8172 11.0648 
758 1 26.8466 23.7631 11.0958 
777 1 25.2347 25.2442 9.50023 
778 1 26.8116 26.8257 11.0948 
977 1 25.1541 25.2451 12.6318 
2054 2 26.8175 25.2563 13.4298 
760 1 29.9752 23.6674 11.0776 
779 1 28.3969 25.2579 9.49953 
780 1 29.9805 26.833 11.0754 
979 1 28.4802 25.2559 12.6298 
603 1 3.2147 31.534 9.52538 
803 1 3.21737 31.5377 12.6614 
782 1 1.6525 29.9645 11.0838 
981 1 0.0809556 28.3838 12.6659 
783 1 3.21276 28.3874 9.5068 
983 1 3.2179 28.3912 12.6567 
605 1 6.36758 31.5349 9.52137 
805 1 6.36235 31.5402 12.6611 
784 1 4.79263 29.9607 11.0952 
785 1 6.36176 28.3844 9.50814 
786 1 7.94459 29.9633 11.0921 
985 1 6.36197 28.3912 12.6559 
607 1 9.50512 31.5378 9.50787 
807 1 9.47566 31.6318 12.6548 
787 1 9.49973 28.389 9.518 
788 1 11.1011 29.9689 11.0003 
987 1 9.47373 28.3102 12.6595 
789 1 12.6427 28.3887 9.48983 
989 1 12.6374 28.4046 12.6698 
2083 2 10.2732 29.97 12.6492 
790 1 14.2086 29.9685 11.0818 
791 1 15.7806 28.3866 9.52553 
792 1 17.3551 29.9778 11.0908 
991 1 15.7761 28.4824 12.6986 
2084 2 15.7909 26.8366 11.8552 
793 1 18.9154 28.488 9.4987 
794 1 20.5206 29.9718 11.0838 
993 1 18.9541 28.4188 12.6661 
795 1 22.0875 28.3722 9.50201 
995 1 22.1339 28.4111 12.5873 
796 1 23.6645 29.9829 11.0661 
797 1 25.2417 28.3863 9.50419 
798 1 26.7171 29.9639 11.1105 
997 1 25.2259 28.3872 12.6653 
819 1 28.3919 31.5283 12.6459 
781 1 31.5418 28.3907 9.50357 
799 1 28.3896 28.3108 9.48022 
800 1 30.0662 29.963 11.1074 
999 1 28.395 28.4021 12.6406 
2031 2 28.3911 29.9338 10.3586 
802 1 1.64304 1.63324 14.2316 
1002 1 1.64088 1.63276 17.3747 
1021 1 0.0661569 3.20503 15.801 
1023 1 3.20818 3.19693 15.8034 
804 1 4.78528 1.63617 14.2309 
1004 1 4.78275 1.63241 17.3763 
806 1 7.92693 1.6615 14.2366 
1006 1 7.92125 1.63479 17.3829 
1025 1 6.35207 3.20795 15.8072 
808 1 11.0689 1.6645 14.2293 
1007 1 9.49841 0.0770922 15.8004 
1008 1 11.0803 1.64263 17.3857 
1027 1 9.50145 3.19276 15.8809 
1009 1 12.6468 0.0859459 15.8098 
1029 1 12.6451 3.22543 15.8048 
2056 2 9.50686 4.01729 14.2274 
810 1 14.2142 1.66143 14.2267 
1010 1 14.2212 1.65163 17.3771 
812 1 17.3638 1.65421 14.232 
1011 1 15.7925 0.0803766 15.8047 
1012 1 17.3654 1.65142 17.3811 
1031 1 15.7956 3.21796 15.8059 
814 1 20.5139 1.65437 14.2297 
1013 1 18.9346 0.0853551 15.8127 
1014 1 20.5089 1.63891 17.3699 
1033 1 18.9373 3.2168 15.8024 
1015 1 22.0936 0.0718687 15.8043 
1035 1 22.0918 3.21711 15.7914 
816 1 23.6641 1.64392 14.2295 
1016 1 23.6711 1.64333 17.3604 
818 1 26.821 1.63259 14.2341 
1018 1 26.8279 1.63347 17.386 
1037 1 25.2447 3.20963 15.8058 
820 1 29.9678 1.63029 14.2267 
1020 1 29.9796 1.64441 17.3655 
1039 1 28.3946 3.20415 15.808 
822 1 1.63035 4.78164 14.2276 
1022 1 1.62597 4.77072 17.3797 
842 1 1.54926 7.92399 14.2016 
1041 1 0.0625825 6.34931 15.8036 
1042 1 1.6409 7.92626 17.3609 
1043 1 3.20399 6.27252 15.8267 
2013 2 3.20415 7.92894 15.0165 
824 1 4.76895 4.78362 14.2282 
1024 1 4.78483 4.77219 17.3802 
844 1 4.85843 7.93575 14.1999 
1044 1 4.77074 7.9313 17.3597 