ITEM: TIMESTEP
856856
ITEM: NUMBER OF ATOMS
2100
ITEM: BOX BOUNDS pp pp pp
-1.7294260411803003e-01 3.1772942604119400e+01
-1.7294260411803003e-01 3.1772942604119400e+01
-1.7294260411803003e-01 3.1772942604119400e+01
ITEM: ATOMS id type x y z 
2 1 1.52502 1.40523 1.56527 
1229 1 3.19456 2.93339 3.12767 
1021 1 -0.0734011 -0.133569 0.0119766 
23 1 3.11977 2.96936 -0.0703862 
532 1 3.11327 -0.152711 0.0101994 
1397 1 3.14314 -0.171328 3.18926 
180 1 -0.119432 2.91739 -0.150139 
4 1 4.65513 1.4241 1.49507 
6 1 7.99172 1.39482 1.60928 
2074 2 6.31313 0.61382 1.62594 
5 1 6.33469 -0.150551 -0.063744 
25 1 6.32018 2.90821 3.10098 
1886 1 6.35813 2.90939 -0.0612552 
8 1 11.1348 1.38817 1.55729 
229 1 12.7322 2.95629 3.11221 
1537 1 9.53638 2.95226 3.10313 
30 1 12.7476 2.96132 -0.0464797 
27 1 9.52812 2.92565 -0.0765997 
188 1 12.7293 -0.133701 0.0254979 
209 1 12.7215 -0.116286 3.15853 
227 1 9.5243 -0.137517 3.18461 
7 1 9.52633 -0.146347 0.0231278 
29 1 14.33 1.3936 1.56917 
12 1 17.5323 1.40447 1.57164 
1509 1 15.9193 2.9547 3.13545 
1746 1 15.9463 2.97904 0.0738945 
10 1 15.9266 -0.169848 3.17477 
1512 1 15.9276 -0.132199 0.035543 
1526 1 19.0232 2.96929 3.14966 
2071 2 20.7155 2.98678 2.44813 
13 1 19.1161 -0.136355 0.0317592 
1618 1 20.7219 1.36082 1.54921 
21 1 19.1496 2.98557 -0.0345832 
1814 1 22.3213 -0.129373 0.018047 
1157 1 22.4159 2.97088 3.13456 
213 1 19.1191 -0.155892 3.18012 
115 1 22.3076 2.99136 -0.0489425 
215 1 22.316 -0.158008 3.17058 
16 1 23.9026 1.41304 1.54725 
237 1 25.4906 2.97502 3.11215 
442 1 27.0044 1.39674 1.57846 
1279 1 25.5002 -0.135319 0.00296785 
298 1 25.5128 2.98814 -0.0699102 
239 1 28.6217 2.94376 3.07891 
2019 2 28.7344 1.51638 0.960353 
219 1 30.4227 1.40999 1.67061 
1865 1 28.681 3.03443 -0.120576 
1820 1 28.7147 -0.0976283 -0.0183292 
223 1 1.50341 4.45859 1.49823 
1019 1 3.10807 6.02644 3.05373 
1792 1 1.49282 7.51603 1.4819 
1528 1 -0.109762 6.10109 3.07132 
41 1 -0.107405 6.01615 -0.0920823 
44 1 3.12275 8.89424 -0.0885279 
24 1 3.11765 5.99659 -0.141106 
1210 1 -0.116468 8.95575 -0.105762 
26 1 7.93981 4.46778 1.4947 
884 1 4.72401 4.47566 1.48589 
46 1 7.9397 7.52289 1.498 
245 1 4.74294 7.51489 1.496 
45 1 6.3557 5.98809 -0.0919684 
683 1 6.33121 6.01463 3.06625 
1866 1 6.34644 8.85203 -0.171488 
28 1 11.1398 4.48847 1.48381 
48 1 11.1538 7.55592 1.4883 
247 1 9.53217 6.04449 3.05947 
990 1 12.7191 6.06324 3.07635 
49 1 12.7731 6.0514 -0.102581 
47 1 9.56974 5.99384 -0.118998 
67 1 9.53998 8.8877 -0.141049 
231 1 17.5523 4.53922 1.53568 
50 1 17.5423 7.64807 1.48435 
69 1 14.3323 7.64885 1.65873 
32 1 15.9687 6.02672 -0.0708608 
230 1 15.9379 6.02353 3.07861 
1572 1 14.3286 4.53195 1.53328 
2046 2 14.8206 7.53168 -0.0930878 
34 1 20.7356 4.60257 1.5364 
271 1 19.1354 6.10418 3.06369 
1976 1 20.7785 7.64059 1.46442 
253 1 22.3475 6.1131 3.05685 
569 1 19.1542 6.05287 -0.118168 
560 1 22.3422 6.05933 -0.117251 
257 1 25.5054 6.11444 3.06277 
58 1 27.0904 7.53472 1.4466 
1370 1 23.9601 7.66179 1.46345 
1123 1 25.5088 6.04835 -0.123121 
1955 1 23.9097 4.53485 1.50242 
259 1 27.0796 4.50318 1.55826 
18 1 30.2833 4.45952 1.50112 
60 1 30.2343 7.50837 1.45807 
66 1 28.657 5.99595 -0.071696 
260 1 28.6586 6.08032 3.06592 
333 1 3.11987 9.09872 3.06923 
263 1 1.53077 10.4262 1.41824 
656 1 3.15246 12.6392 2.50891 
283 1 0.675975 12.7354 0.51819 
242 1 -0.148099 9.16185 3.01618 
200 1 1.5357 10.9573 4.35595 
1611 1 4.74401 10.5071 1.52319 
268 1 6.36803 12.6571 2.53542 
68 1 7.89609 10.4363 1.45533 
465 1 4.70453 10.9741 4.36184 
919 1 8.71141 12.6986 0.413012 
427 1 6.32284 9.07426 3.09017 
469 1 9.44818 12.5452 2.94215 
1308 1 12.5711 9.23344 3.01242 
267 1 9.54609 9.15353 3.05963 
270 1 12.5459 12.3914 2.87332 
1045 1 10.8987 10.7753 1.32182 
1642 1 12.7274 9.03393 -0.0981764 
1984 1 12.7291 11.9511 -0.159926 
70 1 14.285 10.6301 1.536 
1957 1 17.5741 10.6472 1.53117 
1401 1 15.8812 12.6101 2.66308 
71 1 15.9501 9.05907 -0.149894 
91 1 15.9193 11.7949 -0.16927 
273 1 19.2619 9.21479 3.01518 
74 1 20.8844 10.7523 1.43659 
293 1 19.2195 12.3051 2.93069 
275 1 22.4149 9.24944 3.00239 
274 1 22.3518 12.5514 2.85839 
109 1 19.1677 11.9593 -0.145876 
1261 1 19.2012 9.10085 -0.124163 
54 1 22.4137 9.17585 -0.124066 
2016 2 27.1149 9.39012 1.74571 
56 1 25.5775 9.3305 2.91625 
76 1 24.0418 10.8785 1.38958 
297 1 25.4555 12.6277 2.84274 
1339 1 25.556 9.208 -0.103024 
278 1 27.1549 10.9679 4.37716 
299 1 27.2035 11.1851 1.22911 
80 1 30.3151 11.1755 1.02896 
279 1 28.7111 9.27835 2.85184 
2097 2 28.8138 12.6775 2.74464 
79 1 28.6563 9.11111 -0.108748 
2025 2 30.338 9.41124 1.74278 
1369 1 30.3136 10.9566 4.3511 
102 1 1.50301 17.8553 1.75745 
303 1 3.11375 16.2241 3.23632 
103 1 1.54357 15.0097 1.49741 
302 1 3.14749 16.71 0.0175582 
1521 1 -0.041064 16.5755 0.0264469 
483 1 1.51336 14.1597 4.28595 
1063 1 4.74114 14.8958 1.64766 
916 1 6.35976 16.1609 3.26751 
86 1 6.29053 16.7007 0.0236468 
104 1 4.74222 17.9332 1.77281 
1910 1 7.94444 14.9395 1.54238 
105 1 7.97359 17.8569 1.71381 
285 1 4.69678 14.1567 4.37954 
289 1 11.0028 14.2129 1.21141 
965 1 9.62476 16.0431 3.21286 
308 1 12.6744 15.8852 2.91359 
1752 1 12.7873 16.4792 0.0932919 
108 1 11.0989 17.8124 1.64705 
309 1 13.8125 13.9891 1.20198 
110 1 14.2933 17.9356 1.72531 
311 1 17.9619 13.8907 1.24367 
1905 1 15.8641 15.66 2.64228 
2001 2 17.3651 15.81 1.08436 
1173 1 17.4977 17.9306 1.69769 
1321 1 17.5078 14.0594 4.32136 
290 1 14.2461 14.0549 4.30183 
1892 1 15.8805 16.9121 -0.107956 
313 1 19.0984 15.8963 2.88445 
2029 2 19.7854 14.1224 2.68256 
396 1 22.2751 15.788 2.91467 
88 1 20.7421 17.8076 1.67207 
407 1 20.7779 14.1302 1.03549 
95 1 22.2996 16.3547 0.0406015 
94 1 19.0976 16.5023 0.0783644 
96 1 23.8593 14.268 1.18903 
317 1 25.4613 15.818 2.97949 
1918 1 23.9033 17.6798 1.66097 
98 1 27.0622 14.3497 1.28172 
1409 1 27.029 17.6616 1.61148 
117 1 25.3748 16.2084 -0.0325851 
1096 1 31.7528 16.1329 3.11073 
82 1 30.1709 17.7421 1.61689 
100 1 30.3295 14.4567 1.13562 
319 1 28.688 15.9483 2.95182 
119 1 28.5254 16.236 -0.0827201 
943 1 30.3168 14.1743 4.37654 
343 1 3.10873 22.4064 3.35065 
143 1 3.18358 22.5849 0.239378 
1049 1 1.47712 20.9278 1.74143 
123 1 3.08191 19.5263 0.129118 
140 1 -0.0866391 22.3676 3.40667 
1462 1 3.05275 19.316 3.32346 
121 1 -0.0927868 19.3877 0.109796 
315 1 -0.151776 19.2527 3.28326 
124 1 4.7061 20.8585 1.78316 
126 1 6.35591 19.5738 0.134258 
345 1 6.27682 22.4772 3.3509 
1535 1 7.9163 20.9418 1.81233 
1668 1 6.29416 22.5853 0.225798 
1630 1 9.52001 22.5782 0.221882 
327 1 9.60201 19.2561 3.30514 
347 1 9.5236 22.4186 3.38655 
349 1 12.7288 22.4034 3.4132 
127 1 9.53071 19.5773 0.177726 
107 1 12.6945 19.5309 0.195765 
595 1 12.7041 19.3052 3.33932 
1090 1 12.7199 22.5318 0.242889 
1348 1 11.1205 20.9642 1.80835 
132 1 17.5175 20.9187 1.79353 
351 1 15.898 22.3892 3.41575 
131 1 14.3142 20.9773 1.74758 
1912 1 15.911 19.5885 0.134544 
328 1 15.897 19.3218 3.33739 
151 1 15.9289 22.5783 0.208445 
281 1 20.73 20.9116 1.78927 
112 1 19.1326 19.2194 3.31407 
134 1 22.3218 19.2005 3.28804 
153 1 19.1247 22.5493 0.206029 
357 1 22.3232 22.3704 3.36427 
133 1 19.1422 19.5193 0.173849 
99 1 22.3305 19.4464 0.173108 
155 1 22.3207 22.5233 0.267587 
353 1 19.1062 22.364 3.37872 
136 1 23.9133 20.8855 1.76708 
358 1 25.5096 22.3608 3.34009 
118 1 25.446 19.1345 3.24694 
296 1 25.4675 19.4144 0.154776 
2041 2 27.0521 20.0338 3.26168 
1201 1 25.4828 22.5434 0.196115 
159 1 27.0616 20.9384 1.66784 
359 1 28.667 22.3572 3.33026 
318 1 28.6928 19.1885 3.26046 
139 1 28.6113 19.4115 0.14334 
1258 1 30.255 20.8973 1.71539 
502 1 28.609 22.5285 0.16343 
2021 2 -0.0631561 22.6487 0.100317 
142 1 1.44042 23.9775 1.80374 
363 1 3.1331 25.4684 3.23777 
163 1 3.1653 25.589 0.161616 
361 1 -0.0778344 25.4829 3.38122 
661 1 1.50154 27.0571 1.68202 
146 1 7.95757 24.036 1.79644 
523 1 6.2818 25.4923 3.32572 
1944 1 6.30601 25.6179 0.176263 
1680 1 7.89464 27.1244 1.71888 
164 1 4.70868 27.1505 1.70026 
580 1 9.51496 25.5267 3.35943 
1740 1 11.1275 24.0522 1.79681 
369 1 12.7185 25.4826 3.38965 
167 1 9.47466 25.6357 0.182731 
1429 1 11.1502 27.132 1.73937 
150 1 14.3133 24.0489 1.7964 
152 1 17.514 23.9938 1.85446 
171 1 15.9977 25.5855 0.157046 
1932 1 17.5295 27.1016 1.72366 
170 1 14.3002 27.1126 1.73087 
350 1 15.918 25.5206 3.35561 
172 1 19.1218 25.511 3.35133 
154 1 20.7113 24.0145 1.78811 
174 1 20.7083 27.1091 1.71976 
375 1 22.3103 25.5175 3.33844 
175 1 22.3086 25.6066 0.16851 
1435 1 19.1114 25.575 0.155458 
156 1 23.9116 24.0261 1.7791 
158 1 27.0902 24.0226 1.76497 
377 1 23.8953 27.1244 1.71231 
177 1 25.4933 25.6073 0.210181 
1300 1 25.5104 25.518 3.32788 
1690 1 27.1044 27.1374 1.70394 
160 1 30.2747 23.9921 1.74626 
379 1 30.3063 27.0773 1.68325 
1085 1 28.6976 25.4982 3.32178 
261 1 28.6281 25.5735 0.175811 
926 1 -0.0153394 28.7457 0.0887528 
1423 1 -0.0580292 31.6794 3.16003 
3 1 1.56163 30.2225 1.63656 
1758 1 3.1053 28.6155 3.24583 
381 1 -0.0547183 28.5975 3.23708 
1226 1 3.12782 28.6873 0.0976035 
592 1 6.2903 31.7529 3.28431 
183 1 4.7191 30.2488 1.6377 
1703 1 7.80889 30.2603 1.62578 
186 1 6.30073 28.6262 3.25906 
185 1 6.30655 28.6992 0.0846155 
166 1 9.52136 28.7212 0.12003 
2073 2 9.51291 30.1538 2.30479 
387 1 9.46015 28.5826 3.29335 
2094 2 12.7247 28.629 3.27095 
438 1 11.221 30.2167 1.63581 
1103 1 12.7414 28.7439 0.0310731 
11 1 17.5172 30.2344 1.64495 
189 1 14.3219 30.2096 1.65397 
190 1 15.9786 28.6441 3.25036 
1992 1 15.9192 28.6931 0.114453 
192 1 19.1221 28.6556 3.25305 
194 1 20.7167 30.2348 1.64325 
193 1 19.112 28.6979 0.123269 
195 1 22.3098 28.7022 0.101408 
1771 1 22.3132 28.6578 3.24854 
217 1 25.4965 31.764 3.15303 
199 1 25.4955 28.6421 3.23225 
1345 1 25.4465 28.7046 0.0902673 
19 1 27.1163 30.2144 1.6012 
1124 1 23.9006 30.2404 1.63443 
391 1 28.6977 31.7583 3.12024 
1004 1 30.2743 30.1964 1.61184 
399 1 28.7044 28.6148 3.28158 
202 1 -0.0967046 2.92204 6.25608 
402 1 1.50587 1.33902 7.82011 
423 1 3.13046 2.92104 6.21142 
382 1 1.44695 1.38192 4.68014 
205 1 6.29283 2.92952 6.20799 
589 1 7.97686 1.39132 4.71931 
1119 1 4.70457 1.36866 7.872 
1149 1 7.89953 1.38904 7.80722 
208 1 11.125 1.38032 4.70273 
408 1 11.1148 1.38078 7.82304 
429 1 12.7526 2.86551 6.24899 
149 1 9.53034 2.95914 6.24119 
246 1 12.7115 -0.125005 6.269 
211 1 17.5193 1.39979 4.73221 
210 1 14.3297 1.36446 4.69688 
410 1 14.3301 1.37396 7.8425 
212 1 15.8304 2.96645 6.22602 
1061 1 17.5132 1.32078 7.88676 
2086 2 17.518 2.93244 6.96925 
40 1 20.7237 1.40313 4.68367 
1320 1 22.3123 2.97643 6.24497 
214 1 22.3246 -0.0966799 6.27657 
1406 1 19.1991 2.97333 6.21316 
394 1 19.1258 -0.159513 6.30908 
1915 1 20.7053 1.38614 7.84931 
235 1 23.919 1.39342 4.70249 
416 1 23.9195 1.39348 7.84924 
218 1 27.1094 1.3587 4.62254 
617 1 27.1318 1.34353 7.9047 
2043 2 27.0861 2.19909 6.27071 
665 1 25.4234 2.98724 6.24671 
417 1 25.5269 -0.161688 6.29806 
2069 2 29.5745 1.38751 6.24686 
220 1 30.3273 1.39179 4.56947 
22 1 28.7301 3.03724 6.21825 
1864 1 30.3709 1.39725 7.90796 
406 1 1.48472 7.63529 4.56214 
422 1 1.51834 4.44111 7.71452 
445 1 1.50075 4.48816 4.62321 
441 1 -0.078353 6.12142 6.16147 
244 1 3.09175 6.09811 6.13508 
1779 1 4.68538 4.54528 7.70325 
225 1 4.71156 4.55812 4.63397 
226 1 4.70574 7.6185 4.62171 
426 1 7.90051 4.51321 7.76422 
424 1 6.3329 6.06845 6.16172 
645 1 4.78195 7.7252 7.55458 
1222 1 7.92667 7.68865 7.67257 
447 1 7.93198 4.49539 4.6449 
449 1 7.9449 7.62304 4.61742 
228 1 11.1065 4.5131 4.58706 
248 1 11.1232 7.64719 4.61016 
1928 1 11.1091 4.51694 7.84267 
2045 2 11.9763 4.52953 6.21512 
430 1 12.7698 6.18263 6.16273 
1420 1 11.1354 7.6882 7.6283 
793 1 9.53607 6.08042 6.18942 
631 1 14.3072 4.5386 7.78331 
1101 1 14.3107 4.53523 4.66283 
252 1 17.5131 7.70088 4.5725 
250 1 14.3332 7.70844 4.58153 
232 1 17.5156 4.55112 4.68495 
432 1 17.5141 4.59767 7.80346 
451 1 15.9136 6.11579 6.18459 
684 1 14.3185 7.70747 7.70357 
106 1 17.4994 7.68765 7.68524 
1640 1 20.697 4.54567 7.77992 
433 1 20.7234 4.54246 4.63924 
1687 1 22.3122 6.12599 6.18162 
254 1 20.7577 7.67417 4.60133 
453 1 19.121 6.12493 6.18079 
655 1 20.7278 7.70456 7.72421 
256 1 27.1012 7.74492 4.57287 
635 1 23.8892 4.54439 7.79107 
240 1 27.0856 4.53235 4.64793 
255 1 23.9113 4.56988 4.65635 
236 1 27.076 7.68367 7.65777 
1126 1 23.9709 7.73463 4.60828 
436 1 25.5087 6.06939 6.18616 
455 1 23.9044 7.63497 7.70633 
221 1 27.093 4.5163 7.76299 
42 1 30.2913 4.51302 4.61584 
659 1 30.3002 4.53591 7.75663 
941 1 28.6897 6.05104 6.15953 
479 1 30.1973 7.72002 7.63227 
1977 1 30.2209 7.69733 4.58964 
444 1 3.1111 9.32147 6.0177 
462 1 1.51932 10.932 7.51767 
282 1 -0.0447533 12.523 5.9787 
461 1 -0.0090991 9.31129 6.02164 
715 1 3.10423 12.5315 5.91708 
266 1 7.85996 10.9083 4.41897 
768 1 6.30286 9.30936 6.0333 
1012 1 4.70012 10.8815 7.52434 
304 1 7.87093 10.8574 7.56308 
370 1 6.2879 12.5072 5.93685 
487 1 11.0509 10.8752 4.48586 
1301 1 9.46241 12.4761 5.97991 
392 1 9.48591 9.28393 6.07982 
450 1 12.7125 9.30108 6.08284 
467 1 11.085 10.8256 7.58198 
748 1 12.6813 12.4528 5.96913 
1776 1 14.3075 10.8723 4.42471 
1759 1 17.4866 10.8609 4.437 
470 1 15.8921 12.4557 5.8643 
471 1 15.9063 9.28768 6.12785 
491 1 17.4835 10.8585 7.60264 
495 1 14.3163 10.8614 7.59113 
1540 1 20.7896 10.8516 4.51061 
473 1 19.103 9.26674 6.0713 
474 1 22.3497 12.4615 5.97287 
493 1 19.1209 12.4306 5.97061 
693 1 20.6784 10.7996 7.5806 
276 1 22.3056 9.28765 6.05326 
1189 1 23.9892 10.8561 4.42887 
497 1 25.5094 12.5384 5.95356 
1077 1 27.1807 10.8228 7.53725 
2058 2 28.685 9.33469 5.97272 
481 1 30.2773 10.8673 7.4395 
499 1 28.7369 12.5354 5.97455 
325 1 1.48296 17.2634 7.73393 
323 1 1.43932 17.5666 4.78678 
314 1 1.50172 14.0045 7.60055 
2081 2 1.49633 14.9314 5.97865 
505 1 3.1592 15.7681 6.05679 
521 1 -0.162037 15.7702 6.09395 
485 1 7.8832 14.1708 4.4122 
216 1 7.86288 14.01 7.54657 
504 1 4.6784 17.2549 7.69869 
484 1 4.68636 14.0267 7.52885 
1808 1 6.29554 15.7247 6.07039 
306 1 7.98285 17.5915 4.78275 
288 1 4.73882 17.6318 4.79142 
1565 1 7.86864 17.215 7.6666 
1894 1 11.0742 14.1196 4.3968 
1934 1 11.1968 17.5155 4.74205 
468 1 11.0603 13.9646 7.52907 
488 1 9.4827 15.6825 6.054 
508 1 11.0664 17.1417 7.62832 
1571 1 12.6696 15.61 5.99488 
1602 1 14.2913 13.9435 7.5267 
224 1 14.2888 17.3217 4.52873 
510 1 14.3091 16.9469 7.61007 
492 1 17.4776 13.8478 7.54366 
312 1 17.3971 17.2381 4.46249 
511 1 15.7933 15.5749 5.83536 
2007 2 17.4594 15.4294 6.58025 
533 1 17.4453 17.007 7.59737 
1547 1 20.6897 17.0623 7.55335 
335 1 20.7117 17.3627 4.58542 
294 1 20.6911 14.0657 4.39611 
494 1 20.7312 13.9388 7.52965 
513 1 19.1661 15.5955 5.92971 
515 1 22.342 15.6134 5.93152 
116 1 23.8635 17.4226 4.61665 
496 1 23.9037 14.0379 7.63598 
516 1 23.9974 17.1275 7.62631 
517 1 25.535 15.6305 6.03663 
519 1 27.1326 17.3603 4.59118 
320 1 27.1524 17.2153 7.67669 
2003 2 27.1519 15.5353 8.39875 
498 1 27.1177 13.9011 7.56563 
500 1 27.2151 14.1323 4.39956 
681 1 30.3168 13.9971 7.55665 
520 1 30.2594 17.2921 7.79465 
1818 1 28.6969 15.6926 6.08533 
922 1 30.1938 17.5181 4.73832 
322 1 1.4722 20.7584 4.90559 
522 1 -0.0946656 22.2397 6.51864 
543 1 3.09935 22.1637 6.50528 
525 1 3.06549 19.0258 6.35268 
721 1 1.46821 20.558 8.0176 
540 1 -0.130943 19.0337 6.38081 
743 1 4.6476 20.502 7.93696 
1193 1 6.3197 19.0334 6.42539 
326 1 7.90192 20.7282 4.88175 
344 1 4.72224 20.7418 4.88526 
727 1 7.92063 20.516 7.97602 
566 1 6.29784 22.2201 6.48912 
1177 1 11.0741 20.7501 4.94276 
506 1 9.56172 19.0307 6.37996 
529 1 12.7653 18.9896 6.3457 
346 1 11.1485 20.5548 8.03362 
348 1 12.7295 22.1631 6.51894 
178 1 9.50898 22.2339 6.52025 
729 1 14.2992 20.6696 8.14588 
547 1 15.9002 22.2558 6.5703 
2082 2 14.361 18.8662 7.50559 
549 1 17.483 20.6336 8.19743 
332 1 17.5776 20.7325 4.96241 
531 1 15.9092 18.9396 6.28568 
336 1 22.3161 18.9191 6.33527 
553 1 20.2843 20.2148 7.67599 
334 1 20.6992 20.6694 4.90234 
204 1 19.0828 22.3011 6.53151 
1696 1 18.8867 18.6948 6.10213 
716 1 22.3116 22.2942 6.32305 
555 1 22.2954 21.1271 8.67891 
1898 1 24.4374 20.3324 7.92348 
2027 2 23.1163 20.614 6.59679 
1041 1 23.939 20.6674 4.84516 
316 1 25.553 18.8359 6.10665 
2038 2 26.3969 18.9362 7.78359 
356 1 25.5072 22.2804 6.45634 
338 1 27.0855 20.7266 4.96443 
538 1 27.1485 20.6205 8.04122 
301 1 28.6441 19.0024 6.35093 
340 1 30.2332 20.7236 4.88415 
559 1 30.2409 20.591 7.98701 
1303 1 28.6683 22.2422 6.50409 
541 1 1.53311 23.8868 4.9563 
1231 1 1.54809 26.9912 4.86913 
542 1 1.52702 23.7505 8.12366 
2039 2 3.1108 25.3794 6.51826 
1047 1 1.56803 26.9155 7.97869 
583 1 -0.124668 25.3874 6.49524 
1281 1 4.68176 23.8925 5.03628 
1277 1 7.8993 23.8708 4.9453 
573 1 4.70615 23.7476 8.14252 
565 1 6.34864 25.3824 6.51764 
366 1 7.87056 27.0108 4.86639 
564 1 4.71517 26.9244 8.01451 
364 1 4.69423 26.9899 4.88661 
1145 1 7.85325 27.0174 8.00267 
1 1 7.87748 23.7091 8.12561 
367 1 11.1249 23.9204 4.98655 
548 1 11.086 23.7774 8.10276 
567 1 9.42332 25.4204 6.49 
368 1 11.1107 27.0525 4.86646 
1352 1 11.0581 27.074 7.88105 
371 1 17.5086 23.8744 4.96941 
753 1 17.5452 23.7637 8.25567 
372 1 17.5268 27.0476 4.86132 
750 1 14.1791 23.9314 8.00246 
1785 1 14.291 23.9977 4.99062 
1833 1 15.9817 25.4435 6.49397 
572 1 17.5285 27.1064 7.90876 
530 1 14.3131 27.0703 4.85116 
514 1 14.1847 27.1369 7.81408 
393 1 20.7098 27.1096 4.83026 
373 1 20.7008 23.8585 4.90284 
376 1 22.4358 25.4584 6.47614 
1845 1 19.0423 25.4228 6.50898 
897 1 20.8221 23.8916 8.07126 
2047 2 20.7323 25.5118 5.77822 
923 1 20.7364 27.0697 7.95684 
380 1 23.927 23.8881 4.90396 
556 1 23.8495 23.7798 8.12702 
577 1 27.0949 23.7892 8.0962 
378 1 27.1127 27.0405 4.8485 
397 1 25.521 25.4214 6.46676 
599 1 27.155 27.0307 7.95603 
1933 1 23.9264 27.0573 4.84224 
1160 1 23.9895 27.1019 7.92955 
993 1 27.1025 23.8832 4.91485 
162 1 30.2731 23.7606 8.11576 
777 1 28.6951 25.4093 6.48185 
360 1 30.2647 23.8745 4.92495 
1046 1 30.3123 26.9909 8.00788 
413 1 30.286 27.0288 4.86476 
404 1 3.11852 31.7551 6.28039 
401 1 -0.0705448 31.7462 6.23434 
1929 1 1.52888 30.1647 4.77751 
546 1 3.11037 28.6258 6.38372 
1823 1 -0.0360044 28.5503 6.37447 
1659 1 1.51037 30.159 7.90443 
206 1 6.28722 31.7601 6.28514 
384 1 4.69618 30.1061 4.79272 
386 1 7.90878 30.1868 4.76786 
586 1 7.87793 30.1969 7.8614 
1843 1 6.27978 28.576 6.3779 
605 1 4.6963 30.1587 7.88769 
137 1 9.50307 31.758 6.27723 
773 1 9.4107 28.6066 6.35197 
389 1 11.119 30.1705 4.74419 
588 1 11.1061 30.1832 7.80793 
437 1 15.915 31.7698 6.30346 
1583 1 17.5225 30.2132 4.77051 
591 1 15.9744 28.6288 6.35561 
412 1 17.5155 30.22 7.83557 
1080 1 14.2909 30.1865 7.75304 
1118 1 14.3012 30.1765 4.74586 
2099 2 22.3328 30.2388 7.20624 
395 1 20.7268 30.2168 4.78825 
593 1 19.1304 28.6271 6.38382 
574 1 20.6352 30.2232 7.92498 
636 1 22.3331 28.5803 6.35356 
415 1 23.9125 30.2084 4.78194 
596 1 24.0346 30.2236 7.91424 
597 1 25.5382 28.625 6.35959 
598 1 27.1562 30.2046 7.89684 
1106 1 27.0861 30.1717 4.73255 
2050 2 29.4306 31.7439 7.86818 
419 1 28.6517 31.7213 6.20308 
398 1 28.7192 28.6009 6.37762 
400 1 30.297 30.1744 4.7562 
600 1 30.3574 30.1452 7.83924 
1562 1 3.08552 2.90489 9.32471 
623 1 1.52286 1.36803 10.9558 
169 1 -0.0328231 2.95061 12.5128 
822 1 3.05843 3.0051 12.4016 
621 1 -0.0468284 3.01114 9.35937 
1822 1 3.13499 -0.145909 12.5967 
602 1 -0.0194522 -0.170185 12.6534 
606 1 7.891 1.39114 10.8255 
625 1 6.25146 3.01106 9.29665 
1094 1 4.70506 1.30473 10.9762 
624 1 5.69785 3.55551 11.8877 
460 1 7.05109 2.19208 13.1716 
292 1 12.7299 2.89807 12.5263 
608 1 11.0624 1.42203 10.9352 
627 1 9.50878 2.94764 9.36241 
827 1 9.56502 2.88047 12.5757 
629 1 12.7288 2.93682 9.37745 
2067 2 12.7349 0.628768 10.9845 
807 1 9.55207 -0.100619 12.5043 
1619 1 14.3987 1.44261 10.9575 
831 1 15.8932 2.93126 12.5571 
863 1 15.9278 2.95226 9.36435 
811 1 17.5388 1.46655 11.0157 
970 1 19.0991 2.95515 9.3055 
614 1 20.6849 1.39997 11.0116 
634 1 22.3549 2.92621 12.5436 
1023 1 22.2854 2.93584 9.36837 
613 1 19.0927 -0.17291 9.47562 
815 1 22.3197 -0.145115 12.6207 
615 1 22.3173 -0.158595 9.43439 
618 1 27.1054 1.41543 10.9539 
637 1 25.4942 2.95757 9.3855 
837 1 23.8991 1.39348 10.9931 
528 1 25.5099 2.86959 12.538 
817 1 25.5348 -0.119189 12.6428 
1734 1 25.5322 -0.155273 9.46643 
821 1 30.3309 1.37263 10.9762 
639 1 28.727 2.93102 9.34928 
839 1 28.6879 2.91998 12.5158 
699 1 28.6947 -0.131538 12.6324 
622 1 1.5358 4.57355 10.7986 
643 1 2.9017 6.35516 8.93777 
641 1 -0.0731478 6.11645 9.24138 
720 1 1.49626 7.59912 10.8248 
1236 1 3.08648 6.04773 12.4902 
342 1 -0.069221 6.03825 12.4342 
1217 1 4.36739 4.88785 10.4962 
503 1 7.96779 4.4858 10.9106 
646 1 7.93597 7.60633 10.7881 
845 1 6.23793 6.10491 12.3649 
647 1 6.34086 6.1209 9.24491 
428 1 12.7073 6.10362 9.3073 
628 1 11.1265 4.50511 10.9233 
2002 2 10.3243 7.67129 9.28617 
847 1 9.51704 6.02986 12.4484 
849 1 12.7247 6.0419 12.4511 
875 1 9.48257 6.02572 9.30371 
1132 1 11.1503 7.66215 10.9315 
1925 1 15.9129 6.09902 9.31882 
632 1 17.523 4.50756 10.9243 
630 1 14.3224 4.50563 10.916 
832 1 14.3295 7.63275 10.8336 
853 1 17.5262 7.65898 10.8689 
1051 1 15.9329 6.0351 12.4483 
434 1 22.2787 6.05183 9.31671 
454 1 19.1066 6.11722 9.31779 
653 1 20.6647 4.48456 10.9187 
654 1 20.6899 7.64094 10.8563 
855 1 22.2029 5.99582 12.4815 
834 1 19.1028 6.03839 12.4618 
1982 1 23.7831 4.51929 10.9015 
179 1 27.1756 4.48217 10.8444 
657 1 25.4936 6.07509 9.31047 
857 1 25.5894 6.04463 12.4672 
2051 2 25.4875 4.42856 11.539 
2068 2 23.8849 6.71259 12.3338 
877 1 27.0865 7.62406 10.8127 
673 1 23.8748 7.66455 10.7505 
745 1 28.6837 6.05782 12.3409 
658 1 28.6944 6.08656 9.26235 
640 1 30.3014 4.49952 10.894 
660 1 30.2879 7.63347 10.7846 
234 1 -0.0489126 12.2333 12.3067 
196 1 3.1112 9.23882 9.14063 
482 1 3.10048 12.3711 9.12269 
883 1 3.11524 12.2493 12.332 
861 1 1.53759 10.7462 10.7192 
1688 1 -0.0754632 12.352 9.13683 
860 1 -0.0517875 9.18689 12.246 
642 1 0.0386983 9.18798 9.12704 
844 1 3.13171 9.10793 12.3077 
865 1 6.24641 9.12406 12.3012 
799 1 6.2823 9.23516 9.17866 
866 1 4.67807 10.8076 10.707 
1093 1 6.21489 12.2983 12.3 
867 1 6.27067 12.3784 9.12251 
321 1 7.84757 10.7727 10.7314 
848 1 9.38286 9.16049 12.3649 
466 1 9.46264 12.3638 9.12399 
2088 2 11.114 9.79129 12.2805 
421 1 12.8447 9.17418 12.4091 
649 1 12.7099 9.23086 9.22616 
648 1 9.45487 9.29928 9.1996 
668 1 11.1007 10.7797 10.6972 
887 1 9.48776 12.2257 12.2879 
851 1 12.7157 12.2191 12.3297 
1334 1 12.6291 12.3483 9.13233 
652 1 15.9178 9.1916 9.24405 
871 1 15.848 9.17971 12.4145 
891 1 14.3357 10.7931 10.6856 
2092 2 15.8768 12.3298 9.11303 
672 1 17.5246 10.7768 10.7953 
1997 1 15.9292 12.2505 12.4516 
1218 1 22.3622 9.10559 12.4466 
687 1 19.1728 12.3128 9.15239 
475 1 19.0498 9.24492 9.18202 
674 1 22.3914 12.2747 8.99144 
893 1 19.1214 12.3227 12.3796 
1383 1 20.6866 10.6751 10.7759 
676 1 22.2829 12.2043 12.4649 
2062 2 21.7143 12.2562 10.7079 
477 1 25.5111 12.2994 9.11758 
1638 1 25.5569 9.20902 9.25069 
678 1 23.8678 10.7234 10.8148 
899 1 25.5081 9.12332 12.3867 
698 1 25.5179 12.187 12.3206 
1519 1 27.1137 10.748 10.7539 
51 1 30.3008 10.7517 10.7688 
478 1 28.7142 12.3357 9.13811 
2040 2 30.3057 9.97949 9.06556 
679 1 28.633 9.18701 9.23241 
879 1 28.7043 9.12913 12.37 
1394 1 28.7081 12.1844 12.3399 
682 1 1.52092 13.8857 10.7363 
702 1 1.45404 17.0435 10.7401 
703 1 3.09913 15.5257 9.08715 
2053 2 3.06852 16.1329 10.8325 
701 1 -0.0740769 15.5224 9.18723 
901 1 0.0312735 15.3735 12.3929 
1195 1 3.09681 15.2787 12.4539 
31 1 6.27576 15.2776 12.3065 
704 1 4.71066 17.0068 10.7605 
885 1 4.66924 13.8982 10.6525 
686 1 7.87474 13.8482 10.7067 
705 1 6.27206 15.5201 9.16271 
706 1 7.86339 16.958 10.7697 
476 1 9.44489 15.475 9.14246 
509 1 12.593 15.4256 9.13528 
889 1 11.0631 13.8209 10.717 
907 1 9.47929 15.2948 12.3202 
709 1 11.0357 16.8948 10.7377 
909 1 12.6551 15.2396 12.3181 
689 1 14.2792 13.7845 10.6915 
692 1 17.4613 13.7532 10.6137 
892 1 15.8858 15.1471 12.3176 
933 1 17.4668 16.7262 10.7021 
1054 1 14.2896 16.773 10.69 
981 1 15.877 18.0097 12.4122 
713 1 19.0879 15.3662 9.0825 
561 1 20.7304 13.8618 10.6376 
714 1 20.7233 16.8378 10.6065 
913 1 19.0411 15.1285 12.2817 
915 1 22.3333 15.1176 12.3892 
2076 2 20.6925 16.0073 12.2561 
953 1 19.1332 18.0001 12.4025 
383 1 25.5171 15.436 9.22617 
696 1 23.8998 13.743 10.7123 
917 1 25.4664 15.1872 12.3353 
2024 2 25.4803 16.7215 11.2599 
735 1 23.7513 16.811 10.6805 
984 1 27.1358 13.8193 10.7313 
718 1 27.2426 16.8698 10.7957 
700 1 30.3041 13.8645 10.7667 
719 1 28.8174 15.4843 9.16766 
2037 2 28.7368 15.2482 12.3272 
925 1 30.2992 16.9702 10.8119 
1784 1 -0.0661931 18.8197 9.4529 
339 1 3.08716 21.7943 12.9128 
723 1 3.03724 18.7683 9.38622 
722 1 1.45634 20.388 11.132 
921 1 3.056 18.3847 12.3925 
741 1 -0.107985 22.1091 9.69158 
740 1 -0.0908993 18.4203 12.4039 
742 1 -0.00566666 22.1055 13.0564 
1705 1 3.08417 21.9929 9.66836 
537 1 4.58651 20.2 11.0073 
1774 1 6.24628 18.725 9.32208 
601 1 6.27369 18.3817 12.3902 
726 1 7.8406 20.101 10.9535 
1114 1 6.2006 21.9334 9.53959 
1931 1 6.15348 21.3989 12.7478 
816 1 12.7153 18.138 12.3488 
708 1 9.48215 18.3397 12.3841 
1581 1 9.45305 18.6461 9.2647 
1725 1 12.7054 18.5091 9.19583 
1592 1 11.1566 19.9258 10.8307 
747 1 9.55019 22.0316 9.64296 
1493 1 12.6718 22.2353 9.88485 
1032 1 12.7767 20.7644 12.7426 
910 1 9.63905 21.4127 12.3952 
1368 1 14.3181 19.8398 10.8107 
898 1 15.522 22.4366 9.72558 
731 1 15.8712 18.4773 9.15338 
732 1 17.4878 19.5333 10.961 
550 1 15.8788 20.7358 12.7225 
554 1 17.603 22.1289 11.0586 
935 1 22.2586 18.1204 12.4203 
575 1 19.7164 22.0051 9.55554 
914 1 22.301 18.4989 9.12606 
733 1 19.0702 18.403 9.18581 
734 1 20.7142 19.8381 10.7579 
2028 2 20.5422 22.1197 11.7042 
258 1 19.1309 20.7081 12.6926 
534 1 22.2123 20.7605 12.7434 
755 1 22.3494 22.6029 10.4617 
181 1 23.8 19.9007 10.7986 
536 1 25.6131 18.5146 9.45277 
937 1 25.5074 18.2668 12.3619 
1404 1 25.4203 22.1976 9.56329 
1803 1 24.7146 21.999 12.0854 
738 1 26.9749 20.3765 11.1788 
757 1 28.6277 22.137 9.6751 
739 1 28.5935 18.796 9.43787 
759 1 30.2581 20.5179 11.2959 
2022 2 30.2274 19.6818 9.63443 
938 1 28.7039 18.476 12.3051 
2042 2 28.6387 20.9106 13.0091 
2011 2 3.13062 25.3177 9.64673 
762 1 1.58367 26.9654 11.0938 
1434 1 1.55072 23.6836 11.2861 
779 1 -0.11423 25.3281 9.63284 
1753 1 3.22235 25.5589 12.7269 
1309 1 -0.0669369 25.5488 12.6619 
744 1 4.72941 23.5653 11.2662 
746 1 7.73228 22.9992 11.3622 
765 1 6.46098 25.2884 9.7613 
766 1 7.88901 27.3649 11.1019 
945 1 6.20739 25.6222 12.7405 
785 1 4.71167 27.0434 11.0645 
929 1 12.8375 23.2521 12.9011 
969 1 12.5602 25.5841 9.49691 
1187 1 12.7132 25.9686 12.7295 
1168 1 8.66509 25.044 11.9246 
1403 1 11.0007 24.0748 11.2042 
626 1 9.45884 25.4423 9.43904 
769 1 11.0421 27.1932 10.9607 
570 1 15.7862 25.6848 9.33894 
771 1 17.5483 24.7503 11.0728 
792 1 15.9215 26.089 12.7042 
284 1 15.982 23.36 12.7815 
781 1 14.2914 24.3915 11.0623 
2020 2 19.1405 25.7123 9.33416 
1603 1 22.4636 25.6251 9.51065 
955 1 22.2137 23.3772 12.9399 
582 1 19.0947 26.1287 12.7893 
754 1 19.1035 23.365 12.8381 
975 1 22.3236 26.0172 12.7867 
62 1 20.6186 24.5478 11.0513 
1335 1 24.0193 24.4209 11.2903 
977 1 25.6217 25.5123 9.52183 
776 1 25.6142 25.8821 12.7829 
758 1 27.0215 23.8021 11.3403 
778 1 27.1752 27.1261 11.0662 
979 1 28.7302 25.6691 12.6747 
1373 1 28.6992 25.3727 9.62954 
1495 1 30.279 23.7345 11.2918 
999 1 30.3378 27.0696 11.0799 
2054 2 28.7303 23.0753 12.9927 
1717 1 3.15913 31.7408 9.40808 
604 1 1.52423 30.198 11.03 
584 1 0.048213 28.4728 9.50974 
783 1 -0.0217843 28.6596 12.6339 
983 1 3.11986 28.663 12.5658 
603 1 3.11755 28.636 9.48228 
352 1 6.27832 31.7679 9.39993 
805 1 6.25509 31.6803 12.6152 
710 1 6.24371 28.6276 9.45302 
1175 1 4.68327 30.1983 11.0197 
786 1 6.24332 28.7554 12.6504 
2083 2 7.95406 30.8922 12.6507 
607 1 7.87528 30.2413 10.9123 
562 1 9.51409 31.7792 9.37449 
609 1 12.7366 31.7353 9.32837 
988 1 12.7531 31.7463 12.6435 
987 1 9.49996 28.9634 12.6481 
405 1 11.0643 30.2791 10.9567 
788 1 9.47644 28.6872 9.42084 
989 1 12.7385 28.8529 12.4966 
590 1 12.671 28.7274 9.45454 
611 1 15.9136 31.7514 9.44937 
77 1 15.9309 31.7393 12.5957 
2065 2 17.4924 27.3303 10.9376 
971 1 14.2355 27.2149 10.9672 
651 1 15.8864 28.6842 9.44695 
238 1 15.9011 28.8363 12.595 
2084 2 14.317 30.2588 10.9697 
774 1 20.7892 27.3058 11.0514 
813 1 19.0916 31.6675 12.5971 
527 1 19.0858 28.7249 9.49382 
794 1 20.8038 30.2482 11.0401 
576 1 22.3698 28.7111 9.44473 
795 1 19.0888 28.8053 12.5344 
148 1 22.3563 28.7894 12.6644 
1472 1 23.9804 27.2266 11.0802 
1850 1 25.5682 28.6622 9.4859 
796 1 23.9505 30.2606 11.0545 
997 1 25.5631 28.7498 12.6645 
798 1 27.131 30.2209 11.0752 
619 1 28.6581 31.7469 9.52762 
797 1 28.6845 28.613 9.48058 
800 1 30.3352 30.2555 11.1166 
2031 2 30.3785 29.3532 9.50969 
1183 1 28.7526 28.7155 12.6468 
802 1 1.57003 1.36174 14.1578 
1002 1 -0.102413 2.91523 15.7022 
1692 1 1.5517 1.39257 17.3557 
1022 1 1.47835 4.32816 17.3243 
804 1 3.13252 -0.129627 15.8105 
1001 1 -0.0336649 -0.110527 15.7897 
905 1 8.28851 0.889672 14.5883 