ITEM: TIMESTEP
0
ITEM: NUMBER OF ATOMS
2000
ITEM: BOX BOUNDS pp pp pp
0.0000000000000000e+00 3.1600000000000001e+01
0.0000000000000000e+00 3.1600000000000001e+01
0.0000000000000000e+00 3.1600000000000001e+01
ITEM: ATOMS id type x y z 
1 1 0 0 0 
2 1 1.58 1.58 1.58 
201 1 0 0 3.16 
202 1 1.58 1.58 4.74 
401 1 0 0 6.32 
402 1 1.58 1.58 7.9 
601 1 0 0 9.48 
602 1 1.58 1.58 11.06 
801 1 0 0 12.64 
802 1 1.58 1.58 14.22 
1001 1 0 0 15.8 
1002 1 1.58 1.58 17.38 
1201 1 0 0 18.96 
1202 1 1.58 1.58 20.54 
1401 1 0 0 22.12 
1402 1 1.58 1.58 23.7 
1601 1 0 0 25.28 
1602 1 1.58 1.58 26.86 
1801 1 0 0 28.44 
1802 1 1.58 1.58 30.02 
21 1 0 3.16 0 
22 1 1.58 4.74 1.58 
221 1 0 3.16 3.16 
222 1 1.58 4.74 4.74 
421 1 0 3.16 6.32 
422 1 1.58 4.74 7.9 
621 1 0 3.16 9.48 
622 1 1.58 4.74 11.06 
821 1 0 3.16 12.64 
822 1 1.58 4.74 14.22 
1021 1 0 3.16 15.8 
1022 1 1.58 4.74 17.38 
1221 1 0 3.16 18.96 
1222 1 1.58 4.74 20.54 
1421 1 0 3.16 22.12 
1422 1 1.58 4.74 23.7 
1621 1 0 3.16 25.28 
1622 1 1.58 4.74 26.86 
1821 1 0 3.16 28.44 
1822 1 1.58 4.74 30.02 
41 1 0 6.32 0 
42 1 1.58 7.9 1.58 
241 1 0 6.32 3.16 
242 1 1.58 7.9 4.74 
441 1 0 6.32 6.32 
442 1 1.58 7.9 7.9 
641 1 0 6.32 9.48 
642 1 1.58 7.9 11.06 
841 1 0 6.32 12.64 
842 1 1.58 7.9 14.22 
1041 1 0 6.32 15.8 
1042 1 1.58 7.9 17.38 
1241 1 0 6.32 18.96 
1242 1 1.58 7.9 20.54 
1441 1 0 6.32 22.12 
1442 1 1.58 7.9 23.7 
1641 1 0 6.32 25.28 
1642 1 1.58 7.9 26.86 
1841 1 0 6.32 28.44 
1842 1 1.58 7.9 30.02 
61 1 0 9.48 0 
62 1 1.58 11.06 1.58 
261 1 0 9.48 3.16 
262 1 1.58 11.06 4.74 
461 1 0 9.48 6.32 
462 1 1.58 11.06 7.9 
661 1 0 9.48 9.48 
662 1 1.58 11.06 11.06 
861 1 0 9.48 12.64 
862 1 1.58 11.06 14.22 
1061 1 0 9.48 15.8 
1062 1 1.58 11.06 17.38 
1261 1 0 9.48 18.96 
1262 1 1.58 11.06 20.54 
1461 1 0 9.48 22.12 
1462 1 1.58 11.06 23.7 
1661 1 0 9.48 25.28 
1662 1 1.58 11.06 26.86 
1861 1 0 9.48 28.44 
1862 1 1.58 11.06 30.02 
81 1 0 12.64 0 
82 1 1.58 14.22 1.58 
281 1 0 12.64 3.16 
282 1 1.58 14.22 4.74 
481 1 0 12.64 6.32 
482 1 1.58 14.22 7.9 
681 1 0 12.64 9.48 
682 1 1.58 14.22 11.06 
881 1 0 12.64 12.64 
882 1 1.58 14.22 14.22 
1081 1 0 12.64 15.8 
1082 1 1.58 14.22 17.38 
1281 1 0 12.64 18.96 
1282 1 1.58 14.22 20.54 
1481 1 0 12.64 22.12 
1482 1 1.58 14.22 23.7 
1681 1 0 12.64 25.28 
1682 1 1.58 14.22 26.86 
1881 1 0 12.64 28.44 
1882 1 1.58 14.22 30.02 
101 1 0 15.8 0 
102 1 1.58 17.38 1.58 
301 1 0 15.8 3.16 
302 1 1.58 17.38 4.74 
501 1 0 15.8 6.32 
502 1 1.58 17.38 7.9 
701 1 0 15.8 9.48 
702 1 1.58 17.38 11.06 
901 1 0 15.8 12.64 
902 1 1.58 17.38 14.22 
1101 1 0 15.8 15.8 
1102 1 1.58 17.38 17.38 
1301 1 0 15.8 18.96 
1302 1 1.58 17.38 20.54 
1501 1 0 15.8 22.12 
1502 1 1.58 17.38 23.7 
1701 1 0 15.8 25.28 
1702 1 1.58 17.38 26.86 
1901 1 0 15.8 28.44 
1902 1 1.58 17.38 30.02 
121 1 0 18.96 0 
122 1 1.58 20.54 1.58 
321 1 0 18.96 3.16 
322 1 1.58 20.54 4.74 
521 1 0 18.96 6.32 
522 1 1.58 20.54 7.9 
721 1 0 18.96 9.48 
722 1 1.58 20.54 11.06 
921 1 0 18.96 12.64 
922 1 1.58 20.54 14.22 
1121 1 0 18.96 15.8 
1122 1 1.58 20.54 17.38 
1321 1 0 18.96 18.96 
1322 1 1.58 20.54 20.54 
1521 1 0 18.96 22.12 
1522 1 1.58 20.54 23.7 
1721 1 0 18.96 25.28 
1722 1 1.58 20.54 26.86 
1921 1 0 18.96 28.44 
1922 1 1.58 20.54 30.02 
141 1 0 22.12 0 
142 1 1.58 23.7 1.58 
341 1 0 22.12 3.16 
342 1 1.58 23.7 4.74 
541 1 0 22.12 6.32 
542 1 1.58 23.7 7.9 
741 1 0 22.12 9.48 
742 1 1.58 23.7 11.06 
941 1 0 22.12 12.64 
942 1 1.58 23.7 14.22 
1141 1 0 22.12 15.8 
1142 1 1.58 23.7 17.38 
1341 1 0 22.12 18.96 
1342 1 1.58 23.7 20.54 
1541 1 0 22.12 22.12 
1542 1 1.58 23.7 23.7 
1741 1 0 22.12 25.28 
1742 1 1.58 23.7 26.86 
1941 1 0 22.12 28.44 
1942 1 1.58 23.7 30.02 
161 1 0 25.28 0 
162 1 1.58 26.86 1.58 
361 1 0 25.28 3.16 
362 1 1.58 26.86 4.74 
561 1 0 25.28 6.32 
562 1 1.58 26.86 7.9 
761 1 0 25.28 9.48 
762 1 1.58 26.86 11.06 
961 1 0 25.28 12.64 
962 1 1.58 26.86 14.22 
1161 1 0 25.28 15.8 
1162 1 1.58 26.86 17.38 
1361 1 0 25.28 18.96 
1362 1 1.58 26.86 20.54 
1561 1 0 25.28 22.12 
1562 1 1.58 26.86 23.7 
1761 1 0 25.28 25.28 
1762 1 1.58 26.86 26.86 
1961 1 0 25.28 28.44 
1962 1 1.58 26.86 30.02 
181 1 0 28.44 0 
182 1 1.58 30.02 1.58 
381 1 0 28.44 3.16 
382 1 1.58 30.02 4.74 
581 1 0 28.44 6.32 
582 1 1.58 30.02 7.9 
781 1 0 28.44 9.48 
782 1 1.58 30.02 11.06 
981 1 0 28.44 12.64 
982 1 1.58 30.02 14.22 
1181 1 0 28.44 15.8 
1182 1 1.58 30.02 17.38 
1381 1 0 28.44 18.96 
1382 1 1.58 30.02 20.54 
1581 1 0 28.44 22.12 
1582 1 1.58 30.02 23.7 
1781 1 0 28.44 25.28 
1782 1 1.58 30.02 26.86 
1981 1 0 28.44 28.44 
1982 1 1.58 30.02 30.02 
3 1 3.16 0 0 
4 1 4.74 1.58 1.58 
203 1 3.16 0 3.16 
204 1 4.74 1.58 4.74 
403 1 3.16 0 6.32 
404 1 4.74 1.58 7.9 
603 1 3.16 0 9.48 
604 1 4.74 1.58 11.06 
803 1 3.16 0 12.64 
804 1 4.74 1.58 14.22 
1003 1 3.16 0 15.8 
1004 1 4.74 1.58 17.38 
1203 1 3.16 0 18.96 
1204 1 4.74 1.58 20.54 
1403 1 3.16 0 22.12 
1404 1 4.74 1.58 23.7 
1603 1 3.16 0 25.28 
1604 1 4.74 1.58 26.86 
1803 1 3.16 0 28.44 
1804 1 4.74 1.58 30.02 
23 1 3.16 3.16 0 
24 1 4.74 4.74 1.58 
223 1 3.16 3.16 3.16 
224 1 4.74 4.74 4.74 
423 1 3.16 3.16 6.32 
424 1 4.74 4.74 7.9 
623 1 3.16 3.16 9.48 
624 1 4.74 4.74 11.06 
823 1 3.16 3.16 12.64 
824 1 4.74 4.74 14.22 
1023 1 3.16 3.16 15.8 
1024 1 4.74 4.74 17.38 
1223 1 3.16 3.16 18.96 
1224 1 4.74 4.74 20.54 
1423 1 3.16 3.16 22.12 
1424 1 4.74 4.74 23.7 
1623 1 3.16 3.16 25.28 
1624 1 4.74 4.74 26.86 
1823 1 3.16 3.16 28.44 
1824 1 4.74 4.74 30.02 
43 1 3.16 6.32 0 
44 1 4.74 7.9 1.58 
243 1 3.16 6.32 3.16 
244 1 4.74 7.9 4.74 
443 1 3.16 6.32 6.32 
444 1 4.74 7.9 7.9 
643 1 3.16 6.32 9.48 
644 1 4.74 7.9 11.06 
843 1 3.16 6.32 12.64 
844 1 4.74 7.9 14.22 
1043 1 3.16 6.32 15.8 
1044 1 4.74 7.9 17.38 
1243 1 3.16 6.32 18.96 
1244 1 4.74 7.9 20.54 
1443 1 3.16 6.32 22.12 
1444 1 4.74 7.9 23.7 
1643 1 3.16 6.32 25.28 
1644 1 4.74 7.9 26.86 
1843 1 3.16 6.32 28.44 
1844 1 4.74 7.9 30.02 
63 1 3.16 9.48 0 
64 1 4.74 11.06 1.58 
263 1 3.16 9.48 3.16 
264 1 4.74 11.06 4.74 
463 1 3.16 9.48 6.32 
464 1 4.74 11.06 7.9 
663 1 3.16 9.48 9.48 
664 1 4.74 11.06 11.06 
863 1 3.16 9.48 12.64 
864 1 4.74 11.06 14.22 
1063 1 3.16 9.48 15.8 
1064 1 4.74 11.06 17.38 
1263 1 3.16 9.48 18.96 
1264 1 4.74 11.06 20.54 
1463 1 3.16 9.48 22.12 
1464 1 4.74 11.06 23.7 
1663 1 3.16 9.48 25.28 
1664 1 4.74 11.06 26.86 
1863 1 3.16 9.48 28.44 
1864 1 4.74 11.06 30.02 
83 1 3.16 12.64 0 
84 1 4.74 14.22 1.58 
283 1 3.16 12.64 3.16 
284 1 4.74 14.22 4.74 
483 1 3.16 12.64 6.32 
484 1 4.74 14.22 7.9 
683 1 3.16 12.64 9.48 
684 1 4.74 14.22 11.06 
883 1 3.16 12.64 12.64 
884 1 4.74 14.22 14.22 
1083 1 3.16 12.64 15.8 
1084 1 4.74 14.22 17.38 
1283 1 3.16 12.64 18.96 
1284 1 4.74 14.22 20.54 
1483 1 3.16 12.64 22.12 
1484 1 4.74 14.22 23.7 
1683 1 3.16 12.64 25.28 
1684 1 4.74 14.22 26.86 
1883 1 3.16 12.64 28.44 
1884 1 4.74 14.22 30.02 
103 1 3.16 15.8 0 
104 1 4.74 17.38 1.58 
303 1 3.16 15.8 3.16 
304 1 4.74 17.38 4.74 
503 1 3.16 15.8 6.32 
504 1 4.74 17.38 7.9 
703 1 3.16 15.8 9.48 
704 1 4.74 17.38 11.06 
903 1 3.16 15.8 12.64 
904 1 4.74 17.38 14.22 
1103 1 3.16 15.8 15.8 
1104 1 4.74 17.38 17.38 
1303 1 3.16 15.8 18.96 
1304 1 4.74 17.38 20.54 
1503 1 3.16 15.8 22.12 
1504 1 4.74 17.38 23.7 
1703 1 3.16 15.8 25.28 
1704 1 4.74 17.38 26.86 
1903 1 3.16 15.8 28.44 
1904 1 4.74 17.38 30.02 
123 1 3.16 18.96 0 
124 1 4.74 20.54 1.58 
323 1 3.16 18.96 3.16 
324 1 4.74 20.54 4.74 
523 1 3.16 18.96 6.32 
524 1 4.74 20.54 7.9 
723 1 3.16 18.96 9.48 
724 1 4.74 20.54 11.06 
923 1 3.16 18.96 12.64 
924 1 4.74 20.54 14.22 
1123 1 3.16 18.96 15.8 
1124 1 4.74 20.54 17.38 
1323 1 3.16 18.96 18.96 
1324 1 4.74 20.54 20.54 
1523 1 3.16 18.96 22.12 
1524 1 4.74 20.54 23.7 
1723 1 3.16 18.96 25.28 
1724 1 4.74 20.54 26.86 
1923 1 3.16 18.96 28.44 
1924 1 4.74 20.54 30.02 
143 1 3.16 22.12 0 
144 1 4.74 23.7 1.58 
343 1 3.16 22.12 3.16 
344 1 4.74 23.7 4.74 
543 1 3.16 22.12 6.32 
544 1 4.74 23.7 7.9 
743 1 3.16 22.12 9.48 
744 1 4.74 23.7 11.06 
943 1 3.16 22.12 12.64 
944 1 4.74 23.7 14.22 
1143 1 3.16 22.12 15.8 
1144 1 4.74 23.7 17.38 
1343 1 3.16 22.12 18.96 
1344 1 4.74 23.7 20.54 
1543 1 3.16 22.12 22.12 
1544 1 4.74 23.7 23.7 
1743 1 3.16 22.12 25.28 
1744 1 4.74 23.7 26.86 
1943 1 3.16 22.12 28.44 
1944 1 4.74 23.7 30.02 
163 1 3.16 25.28 0 
164 1 4.74 26.86 1.58 
363 1 3.16 25.28 3.16 
364 1 4.74 26.86 4.74 
563 1 3.16 25.28 6.32 
564 1 4.74 26.86 7.9 
763 1 3.16 25.28 9.48 
764 1 4.74 26.86 11.06 
963 1 3.16 25.28 12.64 
964 1 4.74 26.86 14.22 
1163 1 3.16 25.28 15.8 
1164 1 4.74 26.86 17.38 
1363 1 3.16 25.28 18.96 
1364 1 4.74 26.86 20.54 
1563 1 3.16 25.28 22.12 
1564 1 4.74 26.86 23.7 
1763 1 3.16 25.28 25.28 
1764 1 4.74 26.86 26.86 
1963 1 3.16 25.28 28.44 
1964 1 4.74 26.86 30.02 
183 1 3.16 28.44 0 
184 1 4.74 30.02 1.58 
383 1 3.16 28.44 3.16 
384 1 4.74 30.02 4.74 
583 1 3.16 28.44 6.32 
584 1 4.74 30.02 7.9 
783 1 3.16 28.44 9.48 
784 1 4.74 30.02 11.06 
983 1 3.16 28.44 12.64 
984 1 4.74 30.02 14.22 
1183 1 3.16 28.44 15.8 
1184 1 4.74 30.02 17.38 
1383 1 3.16 28.44 18.96 
1384 1 4.74 30.02 20.54 
1583 1 3.16 28.44 22.12 
1584 1 4.74 30.02 23.7 
1783 1 3.16 28.44 25.28 
1784 1 4.74 30.02 26.86 
1983 1 3.16 28.44 28.44 
1984 1 4.74 30.02 30.02 
5 1 6.32 0 0 
6 1 7.9 1.58 1.58 
205 1 6.32 0 3.16 
206 1 7.9 1.58 4.74 
405 1 6.32 0 6.32 
406 1 7.9 1.58 7.9 
605 1 6.32 0 9.48 
606 1 7.9 1.58 11.06 
805 1 6.32 0 12.64 
806 1 7.9 1.58 14.22 
1005 1 6.32 0 15.8 
1006 1 7.9 1.58 17.38 
1205 1 6.32 0 18.96 
1206 1 7.9 1.58 20.54 
1405 1 6.32 0 22.12 
1406 1 7.9 1.58 23.7 
1605 1 6.32 0 25.28 
1606 1 7.9 1.58 26.86 
1805 1 6.32 0 28.44 
1806 1 7.9 1.58 30.02 
25 1 6.32 3.16 0 
26 1 7.9 4.74 1.58 
225 1 6.32 3.16 3.16 
226 1 7.9 4.74 4.74 
425 1 6.32 3.16 6.32 
426 1 7.9 4.74 7.9 
625 1 6.32 3.16 9.48 
626 1 7.9 4.74 11.06 
825 1 6.32 3.16 12.64 
826 1 7.9 4.74 14.22 
1025 1 6.32 3.16 15.8 
1026 1 7.9 4.74 17.38 
1225 1 6.32 3.16 18.96 
1226 1 7.9 4.74 20.54 
1425 1 6.32 3.16 22.12 
1426 1 7.9 4.74 23.7 
1625 1 6.32 3.16 25.28 
1626 1 7.9 4.74 26.86 
1825 1 6.32 3.16 28.44 
1826 1 7.9 4.74 30.02 
45 1 6.32 6.32 0 
46 1 7.9 7.9 1.58 
245 1 6.32 6.32 3.16 
246 1 7.9 7.9 4.74 
445 1 6.32 6.32 6.32 
446 1 7.9 7.9 7.9 
645 1 6.32 6.32 9.48 
646 1 7.9 7.9 11.06 
845 1 6.32 6.32 12.64 
846 1 7.9 7.9 14.22 
1045 1 6.32 6.32 15.8 
1046 1 7.9 7.9 17.38 
1245 1 6.32 6.32 18.96 
1246 1 7.9 7.9 20.54 
1445 1 6.32 6.32 22.12 
1446 1 7.9 7.9 23.7 
1645 1 6.32 6.32 25.28 
1646 1 7.9 7.9 26.86 
1845 1 6.32 6.32 28.44 
1846 1 7.9 7.9 30.02 
65 1 6.32 9.48 0 
66 1 7.9 11.06 1.58 
265 1 6.32 9.48 3.16 
266 1 7.9 11.06 4.74 
465 1 6.32 9.48 6.32 
466 1 7.9 11.06 7.9 
665 1 6.32 9.48 9.48 
666 1 7.9 11.06 11.06 
865 1 6.32 9.48 12.64 
866 1 7.9 11.06 14.22 
1065 1 6.32 9.48 15.8 
1066 1 7.9 11.06 17.38 
1265 1 6.32 9.48 18.96 
1266 1 7.9 11.06 20.54 
1465 1 6.32 9.48 22.12 
1466 1 7.9 11.06 23.7 
1665 1 6.32 9.48 25.28 
1666 1 7.9 11.06 26.86 
1865 1 6.32 9.48 28.44 
1866 1 7.9 11.06 30.02 
85 1 6.32 12.64 0 
86 1 7.9 14.22 1.58 
285 1 6.32 12.64 3.16 
286 1 7.9 14.22 4.74 
485 1 6.32 12.64 6.32 
486 1 7.9 14.22 7.9 
685 1 6.32 12.64 9.48 
686 1 7.9 14.22 11.06 
885 1 6.32 12.64 12.64 
886 1 7.9 14.22 14.22 
1085 1 6.32 12.64 15.8 
1086 1 7.9 14.22 17.38 
1285 1 6.32 12.64 18.96 
1286 1 7.9 14.22 20.54 
1485 1 6.32 12.64 22.12 
1486 1 7.9 14.22 23.7 
1685 1 6.32 12.64 25.28 
1686 1 7.9 14.22 26.86 
1885 1 6.32 12.64 28.44 
1886 1 7.9 14.22 30.02 
105 1 6.32 15.8 0 
106 1 7.9 17.38 1.58 
305 1 6.32 15.8 3.16 
306 1 7.9 17.38 4.74 
505 1 6.32 15.8 6.32 
506 1 7.9 17.38 7.9 
705 1 6.32 15.8 9.48 
706 1 7.9 17.38 11.06 
905 1 6.32 15.8 12.64 
906 1 7.9 17.38 14.22 
1105 1 6.32 15.8 15.8 
1106 1 7.9 17.38 17.38 
1305 1 6.32 15.8 18.96 
1306 1 7.9 17.38 20.54 
1505 1 6.32 15.8 22.12 
1506 1 7.9 17.38 23.7 
1705 1 6.32 15.8 25.28 
1706 1 7.9 17.38 26.86 
1905 1 6.32 15.8 28.44 
1906 1 7.9 17.38 30.02 
125 1 6.32 18.96 0 
126 1 7.9 20.54 1.58 
325 1 6.32 18.96 3.16 
326 1 7.9 20.54 4.74 
525 1 6.32 18.96 6.32 
526 1 7.9 20.54 7.9 
725 1 6.32 18.96 9.48 
726 1 7.9 20.54 11.06 
925 1 6.32 18.96 12.64 
926 1 7.9 20.54 14.22 
1125 1 6.32 18.96 15.8 
1126 1 7.9 20.54 17.38 
1325 1 6.32 18.96 18.96 
1326 1 7.9 20.54 20.54 
1525 1 6.32 18.96 22.12 
1526 1 7.9 20.54 23.7 
1725 1 6.32 18.96 25.28 
1726 1 7.9 20.54 26.86 
1925 1 6.32 18.96 28.44 
1926 1 7.9 20.54 30.02 
145 1 6.32 22.12 0 
146 1 7.9 23.7 1.58 
345 1 6.32 22.12 3.16 
346 1 7.9 23.7 4.74 
545 1 6.32 22.12 6.32 
546 1 7.9 23.7 7.9 
745 1 6.32 22.12 9.48 
746 1 7.9 23.7 11.06 
945 1 6.32 22.12 12.64 
946 1 7.9 23.7 14.22 
1145 1 6.32 22.12 15.8 
1146 1 7.9 23.7 17.38 
1345 1 6.32 22.12 18.96 
1346 1 7.9 23.7 20.54 
1545 1 6.32 22.12 22.12 
1546 1 7.9 23.7 23.7 
1745 1 6.32 22.12 25.28 
1746 1 7.9 23.7 26.86 
1945 1 6.32 22.12 28.44 
1946 1 7.9 23.7 30.02 
165 1 6.32 25.28 0 
166 1 7.9 26.86 1.58 
365 1 6.32 25.28 3.16 
366 1 7.9 26.86 4.74 
565 1 6.32 25.28 6.32 
566 1 7.9 26.86 7.9 
765 1 6.32 25.28 9.48 
766 1 7.9 26.86 11.06 
965 1 6.32 25.28 12.64 
966 1 7.9 26.86 14.22 
1165 1 6.32 25.28 15.8 
1166 1 7.9 26.86 17.38 
1365 1 6.32 25.28 18.96 
1366 1 7.9 26.86 20.54 
1565 1 6.32 25.28 22.12 
1566 1 7.9 26.86 23.7 
1765 1 6.32 25.28 25.28 
1766 1 7.9 26.86 26.86 
1965 1 6.32 25.28 28.44 
1966 1 7.9 26.86 30.02 
185 1 6.32 28.44 0 
186 1 7.9 30.02 1.58 
385 1 6.32 28.44 3.16 
386 1 7.9 30.02 4.74 
585 1 6.32 28.44 6.32 
586 1 7.9 30.02 7.9 
785 1 6.32 28.44 9.48 
786 1 7.9 30.02 11.06 
985 1 6.32 28.44 12.64 
986 1 7.9 30.02 14.22 
1185 1 6.32 28.44 15.8 
1186 1 7.9 30.02 17.38 
1385 1 6.32 28.44 18.96 
1386 1 7.9 30.02 20.54 
1585 1 6.32 28.44 22.12 
1586 1 7.9 30.02 23.7 
1785 1 6.32 28.44 25.28 
1786 1 7.9 30.02 26.86 
1985 1 6.32 28.44 28.44 
1986 1 7.9 30.02 30.02 
7 1 9.48 0 0 
8 1 11.06 1.58 1.58 
207 1 9.48 0 3.16 
208 1 11.06 1.58 4.74 
407 1 9.48 0 6.32 
408 1 11.06 1.58 7.9 
607 1 9.48 0 9.48 
608 1 11.06 1.58 11.06 
807 1 9.48 0 12.64 
808 1 11.06 1.58 14.22 
1007 1 9.48 0 15.8 
1008 1 11.06 1.58 17.38 
1207 1 9.48 0 18.96 
1208 1 11.06 1.58 20.54 
1407 1 9.48 0 22.12 
1408 1 11.06 1.58 23.7 
1607 1 9.48 0 25.28 
1608 1 11.06 1.58 26.86 
1807 1 9.48 0 28.44 
1808 1 11.06 1.58 30.02 
27 1 9.48 3.16 0 
28 1 11.06 4.74 1.58 
227 1 9.48 3.16 3.16 
228 1 11.06 4.74 4.74 
427 1 9.48 3.16 6.32 
428 1 11.06 4.74 7.9 
627 1 9.48 3.16 9.48 
628 1 11.06 4.74 11.06 
827 1 9.48 3.16 12.64 
828 1 11.06 4.74 14.22 
1027 1 9.48 3.16 15.8 
1028 1 11.06 4.74 17.38 
1227 1 9.48 3.16 18.96 
1228 1 11.06 4.74 20.54 
1427 1 9.48 3.16 22.12 
1428 1 11.06 4.74 23.7 
1627 1 9.48 3.16 25.28 
1628 1 11.06 4.74 26.86 
1827 1 9.48 3.16 28.44 
1828 1 11.06 4.74 30.02 
47 1 9.48 6.32 0 
48 1 11.06 7.9 1.58 
247 1 9.48 6.32 3.16 
248 1 11.06 7.9 4.74 
447 1 9.48 6.32 6.32 
448 1 11.06 7.9 7.9 
647 1 9.48 6.32 9.48 
648 1 11.06 7.9 11.06 
847 1 9.48 6.32 12.64 
848 1 11.06 7.9 14.22 
1047 1 9.48 6.32 15.8 
1048 1 11.06 7.9 17.38 
1247 1 9.48 6.32 18.96 
1248 1 11.06 7.9 20.54 
1447 1 9.48 6.32 22.12 
1448 1 11.06 7.9 23.7 
1647 1 9.48 6.32 25.28 
1648 1 11.06 7.9 26.86 
1847 1 9.48 6.32 28.44 
1848 1 11.06 7.9 30.02 
67 1 9.48 9.48 0 
68 1 11.06 11.06 1.58 
267 1 9.48 9.48 3.16 
268 1 11.06 11.06 4.74 
467 1 9.48 9.48 6.32 
468 1 11.06 11.06 7.9 
667 1 9.48 9.48 9.48 
668 1 11.06 11.06 11.06 
867 1 9.48 9.48 12.64 
868 1 11.06 11.06 14.22 
1067 1 9.48 9.48 15.8 
1068 1 11.06 11.06 17.38 
1267 1 9.48 9.48 18.96 
1268 1 11.06 11.06 20.54 
1467 1 9.48 9.48 22.12 
1468 1 11.06 11.06 23.7 
1667 1 9.48 9.48 25.28 
1668 1 11.06 11.06 26.86 
1867 1 9.48 9.48 28.44 
1868 1 11.06 11.06 30.02 
87 1 9.48 12.64 0 
88 1 11.06 14.22 1.58 
287 1 9.48 12.64 3.16 
288 1 11.06 14.22 4.74 
487 1 9.48 12.64 6.32 
488 1 11.06 14.22 7.9 
687 1 9.48 12.64 9.48 
688 1 11.06 14.22 11.06 
887 1 9.48 12.64 12.64 
888 1 11.06 14.22 14.22 
1087 1 9.48 12.64 15.8 
1088 1 11.06 14.22 17.38 
1287 1 9.48 12.64 18.96 
1288 1 11.06 14.22 20.54 
1487 1 9.48 12.64 22.12 
1488 1 11.06 14.22 23.7 
1687 1 9.48 12.64 25.28 
1688 1 11.06 14.22 26.86 
1887 1 9.48 12.64 28.44 
1888 1 11.06 14.22 30.02 
107 1 9.48 15.8 0 
108 1 11.06 17.38 1.58 
307 1 9.48 15.8 3.16 
308 1 11.06 17.38 4.74 
507 1 9.48 15.8 6.32 
508 1 11.06 17.38 7.9 
707 1 9.48 15.8 9.48 
708 1 11.06 17.38 11.06 
907 1 9.48 15.8 12.64 
908 1 11.06 17.38 14.22 
1107 1 9.48 15.8 15.8 
1108 1 11.06 17.38 17.38 
1307 1 9.48 15.8 18.96 
1308 1 11.06 17.38 20.54 
1507 1 9.48 15.8 22.12 
1508 1 11.06 17.38 23.7 
1707 1 9.48 15.8 25.28 
1708 1 11.06 17.38 26.86 
1907 1 9.48 15.8 28.44 
1908 1 11.06 17.38 30.02 
127 1 9.48 18.96 0 
128 1 11.06 20.54 1.58 
327 1 9.48 18.96 3.16 
328 1 11.06 20.54 4.74 
527 1 9.48 18.96 6.32 
528 1 11.06 20.54 7.9 
727 1 9.48 18.96 9.48 
728 1 11.06 20.54 11.06 
927 1 9.48 18.96 12.64 
928 1 11.06 20.54 14.22 
1127 1 9.48 18.96 15.8 
1128 1 11.06 20.54 17.38 
1327 1 9.48 18.96 18.96 
1328 1 11.06 20.54 20.54 
1527 1 9.48 18.96 22.12 
1528 1 11.06 20.54 23.7 
1727 1 9.48 18.96 25.28 
1728 1 11.06 20.54 26.86 
1927 1 9.48 18.96 28.44 
1928 1 11.06 20.54 30.02 
147 1 9.48 22.12 0 
148 1 11.06 23.7 1.58 
347 1 9.48 22.12 3.16 
348 1 11.06 23.7 4.74 
547 1 9.48 22.12 6.32 
548 1 11.06 23.7 7.9 
747 1 9.48 22.12 9.48 
748 1 11.06 23.7 11.06 
947 1 9.48 22.12 12.64 
948 1 11.06 23.7 14.22 
1147 1 9.48 22.12 15.8 
1148 1 11.06 23.7 17.38 
1347 1 9.48 22.12 18.96 
1348 1 11.06 23.7 20.54 
1547 1 9.48 22.12 22.12 
1548 1 11.06 23.7 23.7 
1747 1 9.48 22.12 25.28 
1748 1 11.06 23.7 26.86 
1947 1 9.48 22.12 28.44 
1948 1 11.06 23.7 30.02 
167 1 9.48 25.28 0 
168 1 11.06 26.86 1.58 
367 1 9.48 25.28 3.16 
368 1 11.06 26.86 4.74 
567 1 9.48 25.28 6.32 
568 1 11.06 26.86 7.9 
767 1 9.48 25.28 9.48 
768 1 11.06 26.86 11.06 
967 1 9.48 25.28 12.64 
968 1 11.06 26.86 14.22 
1167 1 9.48 25.28 15.8 
1168 1 11.06 26.86 17.38 
1367 1 9.48 25.28 18.96 
1368 1 11.06 26.86 20.54 
1567 1 9.48 25.28 22.12 
1568 1 11.06 26.86 23.7 
1767 1 9.48 25.28 25.28 
1768 1 11.06 26.86 26.86 
1967 1 9.48 25.28 28.44 
1968 1 11.06 26.86 30.02 
187 1 9.48 28.44 0 
188 1 11.06 30.02 1.58 
387 1 9.48 28.44 3.16 
388 1 11.06 30.02 4.74 
587 1 9.48 28.44 6.32 
588 1 11.06 30.02 7.9 
787 1 9.48 28.44 9.48 
788 1 11.06 30.02 11.06 
987 1 9.48 28.44 12.64 
988 1 11.06 30.02 14.22 
1187 1 9.48 28.44 15.8 
1188 1 11.06 30.02 17.38 
1387 1 9.48 28.44 18.96 
1388 1 11.06 30.02 20.54 
1587 1 9.48 28.44 22.12 
1588 1 11.06 30.02 23.7 
1787 1 9.48 28.44 25.28 
1788 1 11.06 30.02 26.86 
1987 1 9.48 28.44 28.44 
1988 1 11.06 30.02 30.02 
9 1 12.64 0 0 
10 1 14.22 1.58 1.58 
209 1 12.64 0 3.16 
210 1 14.22 1.58 4.74 
409 1 12.64 0 6.32 
410 1 14.22 1.58 7.9 
609 1 12.64 0 9.48 
610 1 14.22 1.58 11.06 
809 1 12.64 0 12.64 
810 1 14.22 1.58 14.22 
1009 1 12.64 0 15.8 
1010 1 14.22 1.58 17.38 
1209 1 12.64 0 18.96 
1210 1 14.22 1.58 20.54 
1409 1 12.64 0 22.12 
1410 1 14.22 1.58 23.7 
1609 1 12.64 0 25.28 
1610 1 14.22 1.58 26.86 
1809 1 12.64 0 28.44 
1810 1 14.22 1.58 30.02 
29 1 12.64 3.16 0 
30 1 14.22 4.74 1.58 
229 1 12.64 3.16 3.16 
230 1 14.22 4.74 4.74 
429 1 12.64 3.16 6.32 
430 1 14.22 4.74 7.9 
629 1 12.64 3.16 9.48 
630 1 14.22 4.74 11.06 
829 1 12.64 3.16 12.64 
830 1 14.22 4.74 14.22 
1029 1 12.64 3.16 15.8 
1030 1 14.22 4.74 17.38 
1229 1 12.64 3.16 18.96 
1230 1 14.22 4.74 20.54 
1429 1 12.64 3.16 22.12 
1430 1 14.22 4.74 23.7 
1629 1 12.64 3.16 25.28 
1630 1 14.22 4.74 26.86 
1829 1 12.64 3.16 28.44 
1830 1 14.22 4.74 30.02 
49 1 12.64 6.32 0 
50 1 14.22 7.9 1.58 
249 1 12.64 6.32 3.16 
250 1 14.22 7.9 4.74 
449 1 12.64 6.32 6.32 
450 1 14.22 7.9 7.9 
649 1 12.64 6.32 9.48 
650 1 14.22 7.9 11.06 
849 1 12.64 6.32 12.64 
850 1 14.22 7.9 14.22 
1049 1 12.64 6.32 15.8 
1050 1 14.22 7.9 17.38 
1249 1 12.64 6.32 18.96 
1250 1 14.22 7.9 20.54 
1449 1 12.64 6.32 22.12 
1450 1 14.22 7.9 23.7 
1649 1 12.64 6.32 25.28 
1650 1 14.22 7.9 26.86 
1849 1 12.64 6.32 28.44 
1850 1 14.22 7.9 30.02 
69 1 12.64 9.48 0 
70 1 14.22 11.06 1.58 
269 1 12.64 9.48 3.16 
270 1 14.22 11.06 4.74 
469 1 12.64 9.48 6.32 
470 1 14.22 11.06 7.9 
669 1 12.64 9.48 9.48 
670 1 14.22 11.06 11.06 
869 1 12.64 9.48 12.64 
870 1 14.22 11.06 14.22 
1069 1 12.64 9.48 15.8 
1070 1 14.22 11.06 17.38 
1269 1 12.64 9.48 18.96 
1270 1 14.22 11.06 20.54 
1469 1 12.64 9.48 22.12 
1470 1 14.22 11.06 23.7 
1669 1 12.64 9.48 25.28 
1670 1 14.22 11.06 26.86 
1869 1 12.64 9.48 28.44 
1870 1 14.22 11.06 30.02 
89 1 12.64 12.64 0 
90 1 14.22 14.22 1.58 
289 1 12.64 12.64 3.16 
290 1 14.22 14.22 4.74 
489 1 12.64 12.64 6.32 
490 1 14.22 14.22 7.9 
689 1 12.64 12.64 9.48 
690 1 14.22 14.22 11.06 
889 1 12.64 12.64 12.64 
890 1 14.22 14.22 14.22 
1089 1 12.64 12.64 15.8 
1090 1 14.22 14.22 17.38 
1289 1 12.64 12.64 18.96 
1290 1 14.22 14.22 20.54 
1489 1 12.64 12.64 22.12 
1490 1 14.22 14.22 23.7 
1689 1 12.64 12.64 25.28 
1690 1 14.22 14.22 26.86 
1889 1 12.64 12.64 28.44 
1890 1 14.22 14.22 30.02 
109 1 12.64 15.8 0 
110 1 14.22 17.38 1.58 
309 1 12.64 15.8 3.16 
310 1 14.22 17.38 4.74 
509 1 12.64 15.8 6.32 
510 1 14.22 17.38 7.9 
709 1 12.64 15.8 9.48 
710 1 14.22 17.38 11.06 
909 1 12.64 15.8 12.64 
910 1 14.22 17.38 14.22 
1109 1 12.64 15.8 15.8 
1110 1 14.22 17.38 17.38 
1309 1 12.64 15.8 18.96 
1310 1 14.22 17.38 20.54 
1509 1 12.64 15.8 22.12 
1510 1 14.22 17.38 23.7 
1709 1 12.64 15.8 25.28 
1710 1 14.22 17.38 26.86 
1909 1 12.64 15.8 28.44 
1910 1 14.22 17.38 30.02 
129 1 12.64 18.96 0 
130 1 14.22 20.54 1.58 
329 1 12.64 18.96 3.16 
330 1 14.22 20.54 4.74 
529 1 12.64 18.96 6.32 
530 1 14.22 20.54 7.9 
729 1 12.64 18.96 9.48 
730 1 14.22 20.54 11.06 
929 1 12.64 18.96 12.64 
930 1 14.22 20.54 14.22 
1129 1 12.64 18.96 15.8 
1130 1 14.22 20.54 17.38 
1329 1 12.64 18.96 18.96 
1330 1 14.22 20.54 20.54 
1529 1 12.64 18.96 22.12 
1530 1 14.22 20.54 23.7 
1729 1 12.64 18.96 25.28 
1730 1 14.22 20.54 26.86 
1929 1 12.64 18.96 28.44 
1930 1 14.22 20.54 30.02 
149 1 12.64 22.12 0 
150 1 14.22 23.7 1.58 
349 1 12.64 22.12 3.16 
350 1 14.22 23.7 4.74 
549 1 12.64 22.12 6.32 
550 1 14.22 23.7 7.9 
749 1 12.64 22.12 9.48 
750 1 14.22 23.7 11.06 
949 1 12.64 22.12 12.64 
950 1 14.22 23.7 14.22 
1149 1 12.64 22.12 15.8 
1150 1 14.22 23.7 17.38 
1349 1 12.64 22.12 18.96 
1350 1 14.22 23.7 20.54 
1549 1 12.64 22.12 22.12 
1550 1 14.22 23.7 23.7 
1749 1 12.64 22.12 25.28 
1750 1 14.22 23.7 26.86 
1949 1 12.64 22.12 28.44 
1950 1 14.22 23.7 30.02 
169 1 12.64 25.28 0 
170 1 14.22 26.86 1.58 
369 1 12.64 25.28 3.16 
370 1 14.22 26.86 4.74 
569 1 12.64 25.28 6.32 
570 1 14.22 26.86 7.9 
769 1 12.64 25.28 9.48 
770 1 14.22 26.86 11.06 
969 1 12.64 25.28 12.64 
970 1 14.22 26.86 14.22 
1169 1 12.64 25.28 15.8 
1170 1 14.22 26.86 17.38 
1369 1 12.64 25.28 18.96 
1370 1 14.22 26.86 20.54 
1569 1 12.64 25.28 22.12 
1570 1 14.22 26.86 23.7 
1769 1 12.64 25.28 25.28 
1770 1 14.22 26.86 26.86 
1969 1 12.64 25.28 28.44 
1970 1 14.22 26.86 30.02 
189 1 12.64 28.44 0 
190 1 14.22 30.02 1.58 
389 1 12.64 28.44 3.16 
390 1 14.22 30.02 4.74 
589 1 12.64 28.44 6.32 
590 1 14.22 30.02 7.9 
789 1 12.64 28.44 9.48 
790 1 14.22 30.02 11.06 
989 1 12.64 28.44 12.64 
990 1 14.22 30.02 14.22 
1189 1 12.64 28.44 15.8 
1190 1 14.22 30.02 17.38 
1389 1 12.64 28.44 18.96 
1390 1 14.22 30.02 20.54 
1589 1 12.64 28.44 22.12 
1590 1 14.22 30.02 23.7 
1789 1 12.64 28.44 25.28 
1790 1 14.22 30.02 26.86 
1989 1 12.64 28.44 28.44 
1990 1 14.22 30.02 30.02 
11 1 15.8 0 0 
12 1 17.38 1.58 1.58 
211 1 15.8 0 3.16 
212 1 17.38 1.58 4.74 
411 1 15.8 0 6.32 
412 1 17.38 1.58 7.9 
611 1 15.8 0 9.48 
612 1 17.38 1.58 11.06 
811 1 15.8 0 12.64 
812 1 17.38 1.58 14.22 
1011 1 15.8 0 15.8 
1012 1 17.38 1.58 17.38 
1211 1 15.8 0 18.96 
1212 1 17.38 1.58 20.54 
1411 1 15.8 0 22.12 
1412 1 17.38 1.58 23.7 
1611 1 15.8 0 25.28 
1612 1 17.38 1.58 26.86 
1811 1 15.8 0 28.44 
1812 1 17.38 1.58 30.02 
31 1 15.8 3.16 0 
32 1 17.38 4.74 1.58 
231 1 15.8 3.16 3.16 
232 1 17.38 4.74 4.74 
431 1 15.8 3.16 6.32 
432 1 17.38 4.74 7.9 
631 1 15.8 3.16 9.48 
632 1 17.38 4.74 11.06 
831 1 15.8 3.16 12.64 
832 1 17.38 4.74 14.22 
1031 1 15.8 3.16 15.8 
1032 1 17.38 4.74 17.38 
1231 1 15.8 3.16 18.96 
1232 1 17.38 4.74 20.54 
1431 1 15.8 3.16 22.12 
1432 1 17.38 4.74 23.7 
1631 1 15.8 3.16 25.28 
1632 1 17.38 4.74 26.86 
1831 1 15.8 3.16 28.44 
1832 1 17.38 4.74 30.02 
51 1 15.8 6.32 0 
52 1 17.38 7.9 1.58 
251 1 15.8 6.32 3.16 
252 1 17.38 7.9 4.74 
451 1 15.8 6.32 6.32 
452 1 17.38 7.9 7.9 
651 1 15.8 6.32 9.48 
652 1 17.38 7.9 11.06 
851 1 15.8 6.32 12.64 
852 1 17.38 7.9 14.22 
1051 1 15.8 6.32 15.8 
1052 1 17.38 7.9 17.38 
1251 1 15.8 6.32 18.96 
1252 1 17.38 7.9 20.54 
1451 1 15.8 6.32 22.12 
1452 1 17.38 7.9 23.7 
1651 1 15.8 6.32 25.28 
1652 1 17.38 7.9 26.86 
1851 1 15.8 6.32 28.44 
1852 1 17.38 7.9 30.02 
71 1 15.8 9.48 0 
72 1 17.38 11.06 1.58 
271 1 15.8 9.48 3.16 
272 1 17.38 11.06 4.74 
471 1 15.8 9.48 6.32 
472 1 17.38 11.06 7.9 
671 1 15.8 9.48 9.48 
672 1 17.38 11.06 11.06 
871 1 15.8 9.48 12.64 
872 1 17.38 11.06 14.22 
1071 1 15.8 9.48 15.8 
1072 1 17.38 11.06 17.38 
1271 1 15.8 9.48 18.96 
1272 1 17.38 11.06 20.54 
1471 1 15.8 9.48 22.12 
1472 1 17.38 11.06 23.7 
1671 1 15.8 9.48 25.28 
1672 1 17.38 11.06 26.86 
1871 1 15.8 9.48 28.44 
1872 1 17.38 11.06 30.02 
91 1 15.8 12.64 0 
92 1 17.38 14.22 1.58 
291 1 15.8 12.64 3.16 
292 1 17.38 14.22 4.74 
491 1 15.8 12.64 6.32 
492 1 17.38 14.22 7.9 
691 1 15.8 12.64 9.48 
692 1 17.38 14.22 11.06 
891 1 15.8 12.64 12.64 
892 1 17.38 14.22 14.22 
1091 1 15.8 12.64 15.8 
1092 1 17.38 14.22 17.38 
1291 1 15.8 12.64 18.96 
1292 1 17.38 14.22 20.54 
1491 1 15.8 12.64 22.12 
1492 1 17.38 14.22 23.7 
1691 1 15.8 12.64 25.28 
1692 1 17.38 14.22 26.86 
1891 1 15.8 12.64 28.44 
1892 1 17.38 14.22 30.02 
111 1 15.8 15.8 0 
112 1 17.38 17.38 1.58 
311 1 15.8 15.8 3.16 
312 1 17.38 17.38 4.74 
511 1 15.8 15.8 6.32 
512 1 17.38 17.38 7.9 
711 1 15.8 15.8 9.48 
712 1 17.38 17.38 11.06 
911 1 15.8 15.8 12.64 
912 1 17.38 17.38 14.22 
1111 1 15.8 15.8 15.8 
1112 1 17.38 17.38 17.38 
1311 1 15.8 15.8 18.96 
1312 1 17.38 17.38 20.54 
1511 1 15.8 15.8 22.12 
1512 1 17.38 17.38 23.7 
1711 1 15.8 15.8 25.28 
1712 1 17.38 17.38 26.86 
1911 1 15.8 15.8 28.44 
1912 1 17.38 17.38 30.02 
131 1 15.8 18.96 0 
132 1 17.38 20.54 1.58 
331 1 15.8 18.96 3.16 
332 1 17.38 20.54 4.74 
531 1 15.8 18.96 6.32 
532 1 17.38 20.54 7.9 
731 1 15.8 18.96 9.48 
732 1 17.38 20.54 11.06 
931 1 15.8 18.96 12.64 
932 1 17.38 20.54 14.22 
1131 1 15.8 18.96 15.8 
1132 1 17.38 20.54 17.38 
1331 1 15.8 18.96 18.96 
1332 1 17.38 20.54 20.54 
1531 1 15.8 18.96 22.12 
1532 1 17.38 20.54 23.7 
1731 1 15.8 18.96 25.28 
1732 1 17.38 20.54 26.86 
1931 1 15.8 18.96 28.44 
1932 1 17.38 20.54 30.02 
151 1 15.8 22.12 0 
152 1 17.38 23.7 1.58 
351 1 15.8 22.12 3.16 
352 1 17.38 23.7 4.74 
551 1 15.8 22.12 6.32 
552 1 17.38 23.7 7.9 
751 1 15.8 22.12 9.48 
752 1 17.38 23.7 11.06 
951 1 15.8 22.12 12.64 
952 1 17.38 23.7 14.22 
1151 1 15.8 22.12 15.8 
1152 1 17.38 23.7 17.38 
1351 1 15.8 22.12 18.96 
1352 1 17.38 23.7 20.54 
1551 1 15.8 22.12 22.12 
1552 1 17.38 23.7 23.7 
1751 1 15.8 22.12 25.28 
1752 1 17.38 23.7 26.86 
1951 1 15.8 22.12 28.44 
1952 1 17.38 23.7 30.02 
171 1 15.8 25.28 0 
172 1 17.38 26.86 1.58 
371 1 15.8 25.28 3.16 
372 1 17.38 26.86 4.74 
571 1 15.8 25.28 6.32 
572 1 17.38 26.86 7.9 
771 1 15.8 25.28 9.48 
772 1 17.38 26.86 11.06 
971 1 15.8 25.28 12.64 
972 1 17.38 26.86 14.22 
1171 1 15.8 25.28 15.8 
1172 1 17.38 26.86 17.38 
1371 1 15.8 25.28 18.96 
1372 1 17.38 26.86 20.54 
1571 1 15.8 25.28 22.12 
1572 1 17.38 26.86 23.7 
1771 1 15.8 25.28 25.28 
1772 1 17.38 26.86 26.86 
1971 1 15.8 25.28 28.44 
1972 1 17.38 26.86 30.02 
191 1 15.8 28.44 0 
192 1 17.38 30.02 1.58 
391 1 15.8 28.44 3.16 
392 1 17.38 30.02 4.74 
591 1 15.8 28.44 6.32 
592 1 17.38 30.02 7.9 
791 1 15.8 28.44 9.48 
792 1 17.38 30.02 11.06 
991 1 15.8 28.44 12.64 
992 1 17.38 30.02 14.22 
1191 1 15.8 28.44 15.8 
1192 1 17.38 30.02 17.38 
1391 1 15.8 28.44 18.96 
1392 1 17.38 30.02 20.54 
1591 1 15.8 28.44 22.12 
1592 1 17.38 30.02 23.7 
1791 1 15.8 28.44 25.28 
1792 1 17.38 30.02 26.86 
1991 1 15.8 28.44 28.44 
1992 1 17.38 30.02 30.02 
13 1 18.96 0 0 
14 1 20.54 1.58 1.58 
213 1 18.96 0 3.16 
214 1 20.54 1.58 4.74 
413 1 18.96 0 6.32 
414 1 20.54 1.58 7.9 
613 1 18.96 0 9.48 
614 1 20.54 1.58 11.06 
813 1 18.96 0 12.64 
814 1 20.54 1.58 14.22 
1013 1 18.96 0 15.8 
1014 1 20.54 1.58 17.38 
1213 1 18.96 0 18.96 
1214 1 20.54 1.58 20.54 
1413 1 18.96 0 22.12 
1414 1 20.54 1.58 23.7 
1613 1 18.96 0 25.28 
1614 1 20.54 1.58 26.86 
1813 1 18.96 0 28.44 
1814 1 20.54 1.58 30.02 
33 1 18.96 3.16 0 
34 1 20.54 4.74 1.58 
233 1 18.96 3.16 3.16 
234 1 20.54 4.74 4.74 
433 1 18.96 3.16 6.32 
434 1 20.54 4.74 7.9 
633 1 18.96 3.16 9.48 
634 1 20.54 4.74 11.06 
833 1 18.96 3.16 12.64 
834 1 20.54 4.74 14.22 
1033 1 18.96 3.16 15.8 
1034 1 20.54 4.74 17.38 
1233 1 18.96 3.16 18.96 